Atomized media lupi-live-qr-atomized

21364 atoms
36624 bonds
6 atom types
1 bond types

-25.06 25.06 xlo xhi
-25.06 25.06 ylo yhi
-2 2 zlo zhi

Masses

1 1.008 # H
2 4.0026 # He
3 6.94 # Li
4 9.0122 # Be
5 10.81 # B
6 12.011 # C

Atoms # atomic

1 6 -23.06 23.06 0
2 6 -22.84 23.06 0
3 6 -22.62 23.06 0
4 6 -22.4 23.06 0
5 6 -22.18 23.06 0
6 6 -21.96 23.06 0
7 6 -21.74 23.06 0
8 6 -23.06 22.84 0
9 6 -22.84 22.84 0
10 6 -22.62 22.84 0
11 6 -22.4 22.84 0
12 6 -22.18 22.84 0
13 6 -21.96 22.84 0
14 6 -21.74 22.84 0
15 6 -23.06 22.62 0
16 6 -22.84 22.62 0
17 6 -22.62 22.62 0
18 6 -22.4 22.62 0
19 6 -22.18 22.62 0
20 6 -21.96 22.62 0
21 6 -21.74 22.62 0
22 6 -23.06 22.4 0
23 6 -22.84 22.4 0
24 6 -22.62 22.4 0
25 6 -22.4 22.4 0
26 6 -22.18 22.4 0
27 6 -21.96 22.4 0
28 6 -21.74 22.4 0
29 6 -23.06 22.18 0
30 6 -22.84 22.18 0
31 6 -22.62 22.18 0
32 6 -22.4 22.18 0
33 6 -22.18 22.18 0
34 6 -21.96 22.18 0
35 6 -21.74 22.18 0
36 6 -23.06 21.96 0
37 6 -22.84 21.96 0
38 6 -22.62 21.96 0
39 6 -22.4 21.96 0
40 6 -22.18 21.96 0
41 6 -21.96 21.96 0
42 6 -21.74 21.96 0
43 6 -23.06 21.74 0
44 6 -22.84 21.74 0
45 6 -22.62 21.74 0
46 6 -22.4 21.74 0
47 6 -22.18 21.74 0
48 6 -21.96 21.74 0
49 6 -21.74 21.74 0
50 6 -21.46 23.06 0
51 6 -21.24 23.06 0
52 6 -21.02 23.06 0
53 6 -20.8 23.06 0
54 6 -20.58 23.06 0
55 6 -20.36 23.06 0
56 6 -20.14 23.06 0
57 6 -21.46 22.84 0
58 6 -21.24 22.84 0
59 6 -21.02 22.84 0
60 6 -20.8 22.84 0
61 6 -20.58 22.84 0
62 6 -20.36 22.84 0
63 6 -20.14 22.84 0
64 6 -21.46 22.62 0
65 6 -21.24 22.62 0
66 6 -21.02 22.62 0
67 6 -20.8 22.62 0
68 6 -20.58 22.62 0
69 6 -20.36 22.62 0
70 6 -20.14 22.62 0
71 6 -21.46 22.4 0
72 6 -21.24 22.4 0
73 6 -21.02 22.4 0
74 6 -20.8 22.4 0
75 6 -20.58 22.4 0
76 6 -20.36 22.4 0
77 6 -20.14 22.4 0
78 6 -21.46 22.18 0
79 6 -21.24 22.18 0
80 6 -21.02 22.18 0
81 6 -20.8 22.18 0
82 6 -20.58 22.18 0
83 6 -20.36 22.18 0
84 6 -20.14 22.18 0
85 6 -21.46 21.96 0
86 6 -21.24 21.96 0
87 6 -21.02 21.96 0
88 6 -20.8 21.96 0
89 6 -20.58 21.96 0
90 6 -20.36 21.96 0
91 6 -20.14 21.96 0
92 6 -21.46 21.74 0
93 6 -21.24 21.74 0
94 6 -21.02 21.74 0
95 6 -20.8 21.74 0
96 6 -20.58 21.74 0
97 6 -20.36 21.74 0
98 6 -20.14 21.74 0
99 6 -19.86 23.06 0
100 6 -19.64 23.06 0
101 6 -19.42 23.06 0
102 6 -19.2 23.06 0
103 6 -18.98 23.06 0
104 6 -18.76 23.06 0
105 6 -18.54 23.06 0
106 6 -19.86 22.84 0
107 6 -19.64 22.84 0
108 6 -19.42 22.84 0
109 6 -19.2 22.84 0
110 6 -18.98 22.84 0
111 6 -18.76 22.84 0
112 6 -18.54 22.84 0
113 6 -19.86 22.62 0
114 6 -19.64 22.62 0
115 6 -19.42 22.62 0
116 6 -19.2 22.62 0
117 6 -18.98 22.62 0
118 6 -18.76 22.62 0
119 6 -18.54 22.62 0
120 6 -19.86 22.4 0
121 6 -19.64 22.4 0
122 6 -19.42 22.4 0
123 6 -19.2 22.4 0
124 6 -18.98 22.4 0
125 6 -18.76 22.4 0
126 6 -18.54 22.4 0
127 6 -19.86 22.18 0
128 6 -19.64 22.18 0
129 6 -19.42 22.18 0
130 6 -19.2 22.18 0
131 6 -18.98 22.18 0
132 6 -18.76 22.18 0
133 6 -18.54 22.18 0
134 6 -19.86 21.96 0
135 6 -19.64 21.96 0
136 6 -19.42 21.96 0
137 6 -19.2 21.96 0
138 6 -18.98 21.96 0
139 6 -18.76 21.96 0
140 6 -18.54 21.96 0
141 6 -19.86 21.74 0
142 6 -19.64 21.74 0
143 6 -19.42 21.74 0
144 6 -19.2 21.74 0
145 6 -18.98 21.74 0
146 6 -18.76 21.74 0
147 6 -18.54 21.74 0
148 6 -18.26 23.06 0
149 6 -18.04 23.06 0
150 6 -17.82 23.06 0
151 6 -17.6 23.06 0
152 6 -17.38 23.06 0
153 6 -17.16 23.06 0
154 6 -16.94 23.06 0
155 6 -18.26 22.84 0
156 6 -18.04 22.84 0
157 6 -17.82 22.84 0
158 6 -17.6 22.84 0
159 6 -17.38 22.84 0
160 6 -17.16 22.84 0
161 6 -16.94 22.84 0
162 6 -18.26 22.62 0
163 6 -18.04 22.62 0
164 6 -17.82 22.62 0
165 6 -17.6 22.62 0
166 6 -17.38 22.62 0
167 6 -17.16 22.62 0
168 6 -16.94 22.62 0
169 6 -18.26 22.4 0
170 6 -18.04 22.4 0
171 6 -17.82 22.4 0
172 6 -17.6 22.4 0
173 6 -17.38 22.4 0
174 6 -17.16 22.4 0
175 6 -16.94 22.4 0
176 6 -18.26 22.18 0
177 6 -18.04 22.18 0
178 6 -17.82 22.18 0
179 6 -17.6 22.18 0
180 6 -17.38 22.18 0
181 6 -17.16 22.18 0
182 6 -16.94 22.18 0
183 6 -18.26 21.96 0
184 6 -18.04 21.96 0
185 6 -17.82 21.96 0
186 6 -17.6 21.96 0
187 6 -17.38 21.96 0
188 6 -17.16 21.96 0
189 6 -16.94 21.96 0
190 6 -18.26 21.74 0
191 6 -18.04 21.74 0
192 6 -17.82 21.74 0
193 6 -17.6 21.74 0
194 6 -17.38 21.74 0
195 6 -17.16 21.74 0
196 6 -16.94 21.74 0
197 6 -16.66 23.06 0
198 6 -16.44 23.06 0
199 6 -16.22 23.06 0
200 6 -16 23.06 0
201 6 -15.78 23.06 0
202 6 -15.56 23.06 0
203 6 -15.34 23.06 0
204 6 -16.66 22.84 0
205 6 -16.44 22.84 0
206 6 -16.22 22.84 0
207 6 -16 22.84 0
208 6 -15.78 22.84 0
209 6 -15.56 22.84 0
210 6 -15.34 22.84 0
211 6 -16.66 22.62 0
212 6 -16.44 22.62 0
213 6 -16.22 22.62 0
214 6 -16 22.62 0
215 6 -15.78 22.62 0
216 6 -15.56 22.62 0
217 6 -15.34 22.62 0
218 6 -16.66 22.4 0
219 6 -16.44 22.4 0
220 6 -16.22 22.4 0
221 6 -16 22.4 0
222 6 -15.78 22.4 0
223 6 -15.56 22.4 0
224 6 -15.34 22.4 0
225 6 -16.66 22.18 0
226 6 -16.44 22.18 0
227 6 -16.22 22.18 0
228 6 -16 22.18 0
229 6 -15.78 22.18 0
230 6 -15.56 22.18 0
231 6 -15.34 22.18 0
232 6 -16.66 21.96 0
233 6 -16.44 21.96 0
234 6 -16.22 21.96 0
235 6 -16 21.96 0
236 6 -15.78 21.96 0
237 6 -15.56 21.96 0
238 6 -15.34 21.96 0
239 6 -16.66 21.74 0
240 6 -16.44 21.74 0
241 6 -16.22 21.74 0
242 6 -16 21.74 0
243 6 -15.78 21.74 0
244 6 -15.56 21.74 0
245 6 -15.34 21.74 0
246 6 -15.06 23.06 0
247 6 -14.84 23.06 0
248 6 -14.62 23.06 0
249 6 -14.4 23.06 0
250 6 -14.18 23.06 0
251 6 -13.96 23.06 0
252 6 -13.74 23.06 0
253 6 -15.06 22.84 0
254 6 -14.84 22.84 0
255 6 -14.62 22.84 0
256 6 -14.4 22.84 0
257 6 -14.18 22.84 0
258 6 -13.96 22.84 0
259 6 -13.74 22.84 0
260 6 -15.06 22.62 0
261 6 -14.84 22.62 0
262 6 -14.62 22.62 0
263 6 -14.4 22.62 0
264 6 -14.18 22.62 0
265 6 -13.96 22.62 0
266 6 -13.74 22.62 0
267 6 -15.06 22.4 0
268 6 -14.84 22.4 0
269 6 -14.62 22.4 0
270 6 -14.4 22.4 0
271 6 -14.18 22.4 0
272 6 -13.96 22.4 0
273 6 -13.74 22.4 0
274 6 -15.06 22.18 0
275 6 -14.84 22.18 0
276 6 -14.62 22.18 0
277 6 -14.4 22.18 0
278 6 -14.18 22.18 0
279 6 -13.96 22.18 0
280 6 -13.74 22.18 0
281 6 -15.06 21.96 0
282 6 -14.84 21.96 0
283 6 -14.62 21.96 0
284 6 -14.4 21.96 0
285 6 -14.18 21.96 0
286 6 -13.96 21.96 0
287 6 -13.74 21.96 0
288 6 -15.06 21.74 0
289 6 -14.84 21.74 0
290 6 -14.62 21.74 0
291 6 -14.4 21.74 0
292 6 -14.18 21.74 0
293 6 -13.96 21.74 0
294 6 -13.74 21.74 0
295 6 -13.46 23.06 0
296 6 -13.24 23.06 0
297 6 -13.02 23.06 0
298 6 -12.8 23.06 0
299 6 -12.58 23.06 0
300 6 -12.36 23.06 0
301 6 -12.14 23.06 0
302 6 -13.46 22.84 0
303 6 -13.24 22.84 0
304 6 -13.02 22.84 0
305 6 -12.8 22.84 0
306 6 -12.58 22.84 0
307 6 -12.36 22.84 0
308 6 -12.14 22.84 0
309 6 -13.46 22.62 0
310 6 -13.24 22.62 0
311 6 -13.02 22.62 0
312 6 -12.8 22.62 0
313 6 -12.58 22.62 0
314 6 -12.36 22.62 0
315 6 -12.14 22.62 0
316 6 -13.46 22.4 0
317 6 -13.24 22.4 0
318 6 -13.02 22.4 0
319 6 -12.8 22.4 0
320 6 -12.58 22.4 0
321 6 -12.36 22.4 0
322 6 -12.14 22.4 0
323 6 -13.46 22.18 0
324 6 -13.24 22.18 0
325 6 -13.02 22.18 0
326 6 -12.8 22.18 0
327 6 -12.58 22.18 0
328 6 -12.36 22.18 0
329 6 -12.14 22.18 0
330 6 -13.46 21.96 0
331 6 -13.24 21.96 0
332 6 -13.02 21.96 0
333 6 -12.8 21.96 0
334 6 -12.58 21.96 0
335 6 -12.36 21.96 0
336 6 -12.14 21.96 0
337 6 -13.46 21.74 0
338 6 -13.24 21.74 0
339 6 -13.02 21.74 0
340 6 -12.8 21.74 0
341 6 -12.58 21.74 0
342 6 -12.36 21.74 0
343 6 -12.14 21.74 0
344 6 -7.06 23.06 0
345 6 -6.84 23.06 0
346 6 -6.62 23.06 0
347 6 -6.4 23.06 0
348 6 -6.18 23.06 0
349 6 -5.96 23.06 0
350 6 -5.74 23.06 0
351 6 -7.06 22.84 0
352 6 -6.84 22.84 0
353 6 -6.62 22.84 0
354 6 -6.4 22.84 0
355 6 -6.18 22.84 0
356 6 -5.96 22.84 0
357 6 -5.74 22.84 0
358 6 -7.06 22.62 0
359 6 -6.84 22.62 0
360 6 -6.62 22.62 0
361 6 -6.4 22.62 0
362 6 -6.18 22.62 0
363 6 -5.96 22.62 0
364 6 -5.74 22.62 0
365 6 -7.06 22.4 0
366 6 -6.84 22.4 0
367 6 -6.62 22.4 0
368 6 -6.4 22.4 0
369 6 -6.18 22.4 0
370 6 -5.96 22.4 0
371 6 -5.74 22.4 0
372 6 -7.06 22.18 0
373 6 -6.84 22.18 0
374 6 -6.62 22.18 0
375 6 -6.4 22.18 0
376 6 -6.18 22.18 0
377 6 -5.96 22.18 0
378 6 -5.74 22.18 0
379 6 -7.06 21.96 0
380 6 -6.84 21.96 0
381 6 -6.62 21.96 0
382 6 -6.4 21.96 0
383 6 -6.18 21.96 0
384 6 -5.96 21.96 0
385 6 -5.74 21.96 0
386 6 -7.06 21.74 0
387 6 -6.84 21.74 0
388 6 -6.62 21.74 0
389 6 -6.4 21.74 0
390 6 -6.18 21.74 0
391 6 -5.96 21.74 0
392 6 -5.74 21.74 0
393 6 -3.86 23.06 0
394 6 -3.64 23.06 0
395 6 -3.42 23.06 0
396 6 -3.2 23.06 0
397 6 -2.98 23.06 0
398 6 -2.76 23.06 0
399 6 -2.54 23.06 0
400 6 -3.86 22.84 0
401 6 -3.64 22.84 0
402 6 -3.42 22.84 0
403 6 -3.2 22.84 0
404 6 -2.98 22.84 0
405 6 -2.76 22.84 0
406 6 -2.54 22.84 0
407 6 -3.86 22.62 0
408 6 -3.64 22.62 0
409 6 -3.42 22.62 0
410 6 -3.2 22.62 0
411 6 -2.98 22.62 0
412 6 -2.76 22.62 0
413 6 -2.54 22.62 0
414 6 -3.86 22.4 0
415 6 -3.64 22.4 0
416 6 -3.42 22.4 0
417 6 -3.2 22.4 0
418 6 -2.98 22.4 0
419 6 -2.76 22.4 0
420 6 -2.54 22.4 0
421 6 -3.86 22.18 0
422 6 -3.64 22.18 0
423 6 -3.42 22.18 0
424 6 -3.2 22.18 0
425 6 -2.98 22.18 0
426 6 -2.76 22.18 0
427 6 -2.54 22.18 0
428 6 -3.86 21.96 0
429 6 -3.64 21.96 0
430 6 -3.42 21.96 0
431 6 -3.2 21.96 0
432 6 -2.98 21.96 0
433 6 -2.76 21.96 0
434 6 -2.54 21.96 0
435 6 -3.86 21.74 0
436 6 -3.64 21.74 0
437 6 -3.42 21.74 0
438 6 -3.2 21.74 0
439 6 -2.98 21.74 0
440 6 -2.76 21.74 0
441 6 -2.54 21.74 0
442 6 -2.26 23.06 0
443 6 -2.04 23.06 0
444 6 -1.82 23.06 0
445 6 -1.6 23.06 0
446 6 -1.38 23.06 0
447 6 -1.16 23.06 0
448 6 -0.94 23.06 0
449 6 -2.26 22.84 0
450 6 -2.04 22.84 0
451 6 -1.82 22.84 0
452 6 -1.6 22.84 0
453 6 -1.38 22.84 0
454 6 -1.16 22.84 0
455 6 -0.94 22.84 0
456 6 -2.26 22.62 0
457 6 -2.04 22.62 0
458 6 -1.82 22.62 0
459 6 -1.6 22.62 0
460 6 -1.38 22.62 0
461 6 -1.16 22.62 0
462 6 -0.94 22.62 0
463 6 -2.26 22.4 0
464 6 -2.04 22.4 0
465 6 -1.82 22.4 0
466 6 -1.6 22.4 0
467 6 -1.38 22.4 0
468 6 -1.16 22.4 0
469 6 -0.94 22.4 0
470 6 -2.26 22.18 0
471 6 -2.04 22.18 0
472 6 -1.82 22.18 0
473 6 -1.6 22.18 0
474 6 -1.38 22.18 0
475 6 -1.16 22.18 0
476 6 -0.94 22.18 0
477 6 -2.26 21.96 0
478 6 -2.04 21.96 0
479 6 -1.82 21.96 0
480 6 -1.6 21.96 0
481 6 -1.38 21.96 0
482 6 -1.16 21.96 0
483 6 -0.94 21.96 0
484 6 -2.26 21.74 0
485 6 -2.04 21.74 0
486 6 -1.82 21.74 0
487 6 -1.6 21.74 0
488 6 -1.38 21.74 0
489 6 -1.16 21.74 0
490 6 -0.94 21.74 0
491 6 0.94 23.06 0
492 6 1.16 23.06 0
493 6 1.38 23.06 0
494 6 1.6 23.06 0
495 6 1.82 23.06 0
496 6 2.04 23.06 0
497 6 2.26 23.06 0
498 6 0.94 22.84 0
499 6 1.16 22.84 0
500 6 1.38 22.84 0
501 6 1.6 22.84 0
502 6 1.82 22.84 0
503 6 2.04 22.84 0
504 6 2.26 22.84 0
505 6 0.94 22.62 0
506 6 1.16 22.62 0
507 6 1.38 22.62 0
508 6 1.6 22.62 0
509 6 1.82 22.62 0
510 6 2.04 22.62 0
511 6 2.26 22.62 0
512 6 0.94 22.4 0
513 6 1.16 22.4 0
514 6 1.38 22.4 0
515 6 1.6 22.4 0
516 6 1.82 22.4 0
517 6 2.04 22.4 0
518 6 2.26 22.4 0
519 6 0.94 22.18 0
520 6 1.16 22.18 0
521 6 1.38 22.18 0
522 6 1.6 22.18 0
523 6 1.82 22.18 0
524 6 2.04 22.18 0
525 6 2.26 22.18 0
526 6 0.94 21.96 0
527 6 1.16 21.96 0
528 6 1.38 21.96 0
529 6 1.6 21.96 0
530 6 1.82 21.96 0
531 6 2.04 21.96 0
532 6 2.26 21.96 0
533 6 0.94 21.74 0
534 6 1.16 21.74 0
535 6 1.38 21.74 0
536 6 1.6 21.74 0
537 6 1.82 21.74 0
538 6 2.04 21.74 0
539 6 2.26 21.74 0
540 6 5.74 23.06 0
541 6 5.96 23.06 0
542 6 6.18 23.06 0
543 6 6.4 23.06 0
544 6 6.62 23.06 0
545 6 6.84 23.06 0
546 6 7.06 23.06 0
547 6 5.74 22.84 0
548 6 5.96 22.84 0
549 6 6.18 22.84 0
550 6 6.4 22.84 0
551 6 6.62 22.84 0
552 6 6.84 22.84 0
553 6 7.06 22.84 0
554 6 5.74 22.62 0
555 6 5.96 22.62 0
556 6 6.18 22.62 0
557 6 6.4 22.62 0
558 6 6.62 22.62 0
559 6 6.84 22.62 0
560 6 7.06 22.62 0
561 6 5.74 22.4 0
562 6 5.96 22.4 0
563 6 6.18 22.4 0
564 6 6.4 22.4 0
565 6 6.62 22.4 0
566 6 6.84 22.4 0
567 6 7.06 22.4 0
568 6 5.74 22.18 0
569 6 5.96 22.18 0
570 6 6.18 22.18 0
571 6 6.4 22.18 0
572 6 6.62 22.18 0
573 6 6.84 22.18 0
574 6 7.06 22.18 0
575 6 5.74 21.96 0
576 6 5.96 21.96 0
577 6 6.18 21.96 0
578 6 6.4 21.96 0
579 6 6.62 21.96 0
580 6 6.84 21.96 0
581 6 7.06 21.96 0
582 6 5.74 21.74 0
583 6 5.96 21.74 0
584 6 6.18 21.74 0
585 6 6.4 21.74 0
586 6 6.62 21.74 0
587 6 6.84 21.74 0
588 6 7.06 21.74 0
589 6 12.14 23.06 0
590 6 12.36 23.06 0
591 6 12.58 23.06 0
592 6 12.8 23.06 0
593 6 13.02 23.06 0
594 6 13.24 23.06 0
595 6 13.46 23.06 0
596 6 12.14 22.84 0
597 6 12.36 22.84 0
598 6 12.58 22.84 0
599 6 12.8 22.84 0
600 6 13.02 22.84 0
601 6 13.24 22.84 0
602 6 13.46 22.84 0
603 6 12.14 22.62 0
604 6 12.36 22.62 0
605 6 12.58 22.62 0
606 6 12.8 22.62 0
607 6 13.02 22.62 0
608 6 13.24 22.62 0
609 6 13.46 22.62 0
610 6 12.14 22.4 0
611 6 12.36 22.4 0
612 6 12.58 22.4 0
613 6 12.8 22.4 0
614 6 13.02 22.4 0
615 6 13.24 22.4 0
616 6 13.46 22.4 0
617 6 12.14 22.18 0
618 6 12.36 22.18 0
619 6 12.58 22.18 0
620 6 12.8 22.18 0
621 6 13.02 22.18 0
622 6 13.24 22.18 0
623 6 13.46 22.18 0
624 6 12.14 21.96 0
625 6 12.36 21.96 0
626 6 12.58 21.96 0
627 6 12.8 21.96 0
628 6 13.02 21.96 0
629 6 13.24 21.96 0
630 6 13.46 21.96 0
631 6 12.14 21.74 0
632 6 12.36 21.74 0
633 6 12.58 21.74 0
634 6 12.8 21.74 0
635 6 13.02 21.74 0
636 6 13.24 21.74 0
637 6 13.46 21.74 0
638 6 13.74 23.06 0
639 6 13.96 23.06 0
640 6 14.18 23.06 0
641 6 14.4 23.06 0
642 6 14.62 23.06 0
643 6 14.84 23.06 0
644 6 15.06 23.06 0
645 6 13.74 22.84 0
646 6 13.96 22.84 0
647 6 14.18 22.84 0
648 6 14.4 22.84 0
649 6 14.62 22.84 0
650 6 14.84 22.84 0
651 6 15.06 22.84 0
652 6 13.74 22.62 0
653 6 13.96 22.62 0
654 6 14.18 22.62 0
655 6 14.4 22.62 0
656 6 14.62 22.62 0
657 6 14.84 22.62 0
658 6 15.06 22.62 0
659 6 13.74 22.4 0
660 6 13.96 22.4 0
661 6 14.18 22.4 0
662 6 14.4 22.4 0
663 6 14.62 22.4 0
664 6 14.84 22.4 0
665 6 15.06 22.4 0
666 6 13.74 22.18 0
667 6 13.96 22.18 0
668 6 14.18 22.18 0
669 6 14.4 22.18 0
670 6 14.62 22.18 0
671 6 14.84 22.18 0
672 6 15.06 22.18 0
673 6 13.74 21.96 0
674 6 13.96 21.96 0
675 6 14.18 21.96 0
676 6 14.4 21.96 0
677 6 14.62 21.96 0
678 6 14.84 21.96 0
679 6 15.06 21.96 0
680 6 13.74 21.74 0
681 6 13.96 21.74 0
682 6 14.18 21.74 0
683 6 14.4 21.74 0
684 6 14.62 21.74 0
685 6 14.84 21.74 0
686 6 15.06 21.74 0
687 6 15.34 23.06 0
688 6 15.56 23.06 0
689 6 15.78 23.06 0
690 6 16 23.06 0
691 6 16.22 23.06 0
692 6 16.44 23.06 0
693 6 16.66 23.06 0
694 6 15.34 22.84 0
695 6 15.56 22.84 0
696 6 15.78 22.84 0
697 6 16 22.84 0
698 6 16.22 22.84 0
699 6 16.44 22.84 0
700 6 16.66 22.84 0
701 6 15.34 22.62 0
702 6 15.56 22.62 0
703 6 15.78 22.62 0
704 6 16 22.62 0
705 6 16.22 22.62 0
706 6 16.44 22.62 0
707 6 16.66 22.62 0
708 6 15.34 22.4 0
709 6 15.56 22.4 0
710 6 15.78 22.4 0
711 6 16 22.4 0
712 6 16.22 22.4 0
713 6 16.44 22.4 0
714 6 16.66 22.4 0
715 6 15.34 22.18 0
716 6 15.56 22.18 0
717 6 15.78 22.18 0
718 6 16 22.18 0
719 6 16.22 22.18 0
720 6 16.44 22.18 0
721 6 16.66 22.18 0
722 6 15.34 21.96 0
723 6 15.56 21.96 0
724 6 15.78 21.96 0
725 6 16 21.96 0
726 6 16.22 21.96 0
727 6 16.44 21.96 0
728 6 16.66 21.96 0
729 6 15.34 21.74 0
730 6 15.56 21.74 0
731 6 15.78 21.74 0
732 6 16 21.74 0
733 6 16.22 21.74 0
734 6 16.44 21.74 0
735 6 16.66 21.74 0
736 6 16.94 23.06 0
737 6 17.16 23.06 0
738 6 17.38 23.06 0
739 6 17.6 23.06 0
740 6 17.82 23.06 0
741 6 18.04 23.06 0
742 6 18.26 23.06 0
743 6 16.94 22.84 0
744 6 17.16 22.84 0
745 6 17.38 22.84 0
746 6 17.6 22.84 0
747 6 17.82 22.84 0
748 6 18.04 22.84 0
749 6 18.26 22.84 0
750 6 16.94 22.62 0
751 6 17.16 22.62 0
752 6 17.38 22.62 0
753 6 17.6 22.62 0
754 6 17.82 22.62 0
755 6 18.04 22.62 0
756 6 18.26 22.62 0
757 6 16.94 22.4 0
758 6 17.16 22.4 0
759 6 17.38 22.4 0
760 6 17.6 22.4 0
761 6 17.82 22.4 0
762 6 18.04 22.4 0
763 6 18.26 22.4 0
764 6 16.94 22.18 0
765 6 17.16 22.18 0
766 6 17.38 22.18 0
767 6 17.6 22.18 0
768 6 17.82 22.18 0
769 6 18.04 22.18 0
770 6 18.26 22.18 0
771 6 16.94 21.96 0
772 6 17.16 21.96 0
773 6 17.38 21.96 0
774 6 17.6 21.96 0
775 6 17.82 21.96 0
776 6 18.04 21.96 0
777 6 18.26 21.96 0
778 6 16.94 21.74 0
779 6 17.16 21.74 0
780 6 17.38 21.74 0
781 6 17.6 21.74 0
782 6 17.82 21.74 0
783 6 18.04 21.74 0
784 6 18.26 21.74 0
785 6 18.54 23.06 0
786 6 18.76 23.06 0
787 6 18.98 23.06 0
788 6 19.2 23.06 0
789 6 19.42 23.06 0
790 6 19.64 23.06 0
791 6 19.86 23.06 0
792 6 18.54 22.84 0
793 6 18.76 22.84 0
794 6 18.98 22.84 0
795 6 19.2 22.84 0
796 6 19.42 22.84 0
797 6 19.64 22.84 0
798 6 19.86 22.84 0
799 6 18.54 22.62 0
800 6 18.76 22.62 0
801 6 18.98 22.62 0
802 6 19.2 22.62 0
803 6 19.42 22.62 0
804 6 19.64 22.62 0
805 6 19.86 22.62 0
806 6 18.54 22.4 0
807 6 18.76 22.4 0
808 6 18.98 22.4 0
809 6 19.2 22.4 0
810 6 19.42 22.4 0
811 6 19.64 22.4 0
812 6 19.86 22.4 0
813 6 18.54 22.18 0
814 6 18.76 22.18 0
815 6 18.98 22.18 0
816 6 19.2 22.18 0
817 6 19.42 22.18 0
818 6 19.64 22.18 0
819 6 19.86 22.18 0
820 6 18.54 21.96 0
821 6 18.76 21.96 0
822 6 18.98 21.96 0
823 6 19.2 21.96 0
824 6 19.42 21.96 0
825 6 19.64 21.96 0
826 6 19.86 21.96 0
827 6 18.54 21.74 0
828 6 18.76 21.74 0
829 6 18.98 21.74 0
830 6 19.2 21.74 0
831 6 19.42 21.74 0
832 6 19.64 21.74 0
833 6 19.86 21.74 0
834 6 20.14 23.06 0
835 6 20.36 23.06 0
836 6 20.58 23.06 0
837 6 20.8 23.06 0
838 6 21.02 23.06 0
839 6 21.24 23.06 0
840 6 21.46 23.06 0
841 6 20.14 22.84 0
842 6 20.36 22.84 0
843 6 20.58 22.84 0
844 6 20.8 22.84 0
845 6 21.02 22.84 0
846 6 21.24 22.84 0
847 6 21.46 22.84 0
848 6 20.14 22.62 0
849 6 20.36 22.62 0
850 6 20.58 22.62 0
851 6 20.8 22.62 0
852 6 21.02 22.62 0
853 6 21.24 22.62 0
854 6 21.46 22.62 0
855 6 20.14 22.4 0
856 6 20.36 22.4 0
857 6 20.58 22.4 0
858 6 20.8 22.4 0
859 6 21.02 22.4 0
860 6 21.24 22.4 0
861 6 21.46 22.4 0
862 6 20.14 22.18 0
863 6 20.36 22.18 0
864 6 20.58 22.18 0
865 6 20.8 22.18 0
866 6 21.02 22.18 0
867 6 21.24 22.18 0
868 6 21.46 22.18 0
869 6 20.14 21.96 0
870 6 20.36 21.96 0
871 6 20.58 21.96 0
872 6 20.8 21.96 0
873 6 21.02 21.96 0
874 6 21.24 21.96 0
875 6 21.46 21.96 0
876 6 20.14 21.74 0
877 6 20.36 21.74 0
878 6 20.58 21.74 0
879 6 20.8 21.74 0
880 6 21.02 21.74 0
881 6 21.24 21.74 0
882 6 21.46 21.74 0
883 6 21.74 23.06 0
884 6 21.96 23.06 0
885 6 22.18 23.06 0
886 6 22.4 23.06 0
887 6 22.62 23.06 0
888 6 22.84 23.06 0
889 6 23.06 23.06 0
890 6 21.74 22.84 0
891 6 21.96 22.84 0
892 6 22.18 22.84 0
893 6 22.4 22.84 0
894 6 22.62 22.84 0
895 6 22.84 22.84 0
896 6 23.06 22.84 0
897 6 21.74 22.62 0
898 6 21.96 22.62 0
899 6 22.18 22.62 0
900 6 22.4 22.62 0
901 6 22.62 22.62 0
902 6 22.84 22.62 0
903 6 23.06 22.62 0
904 6 21.74 22.4 0
905 6 21.96 22.4 0
906 6 22.18 22.4 0
907 6 22.4 22.4 0
908 6 22.62 22.4 0
909 6 22.84 22.4 0
910 6 23.06 22.4 0
911 6 21.74 22.18 0
912 6 21.96 22.18 0
913 6 22.18 22.18 0
914 6 22.4 22.18 0
915 6 22.62 22.18 0
916 6 22.84 22.18 0
917 6 23.06 22.18 0
918 6 21.74 21.96 0
919 6 21.96 21.96 0
920 6 22.18 21.96 0
921 6 22.4 21.96 0
922 6 22.62 21.96 0
923 6 22.84 21.96 0
924 6 23.06 21.96 0
925 6 21.74 21.74 0
926 6 21.96 21.74 0
927 6 22.18 21.74 0
928 6 22.4 21.74 0
929 6 22.62 21.74 0
930 6 22.84 21.74 0
931 6 23.06 21.74 0
932 6 -23.06 21.46 0
933 6 -22.84 21.46 0
934 6 -22.62 21.46 0
935 6 -22.4 21.46 0
936 6 -22.18 21.46 0
937 6 -21.96 21.46 0
938 6 -21.74 21.46 0
939 6 -23.06 21.24 0
940 6 -22.84 21.24 0
941 6 -22.62 21.24 0
942 6 -22.4 21.24 0
943 6 -22.18 21.24 0
944 6 -21.96 21.24 0
945 6 -21.74 21.24 0
946 6 -23.06 21.02 0
947 6 -22.84 21.02 0
948 6 -22.62 21.02 0
949 6 -22.4 21.02 0
950 6 -22.18 21.02 0
951 6 -21.96 21.02 0
952 6 -21.74 21.02 0
953 6 -23.06 20.8 0
954 6 -22.84 20.8 0
955 6 -22.62 20.8 0
956 6 -22.4 20.8 0
957 6 -22.18 20.8 0
958 6 -21.96 20.8 0
959 6 -21.74 20.8 0
960 6 -23.06 20.58 0
961 6 -22.84 20.58 0
962 6 -22.62 20.58 0
963 6 -22.4 20.58 0
964 6 -22.18 20.58 0
965 6 -21.96 20.58 0
966 6 -21.74 20.58 0
967 6 -23.06 20.36 0
968 6 -22.84 20.36 0
969 6 -22.62 20.36 0
970 6 -22.4 20.36 0
971 6 -22.18 20.36 0
972 6 -21.96 20.36 0
973 6 -21.74 20.36 0
974 6 -23.06 20.14 0
975 6 -22.84 20.14 0
976 6 -22.62 20.14 0
977 6 -22.4 20.14 0
978 6 -22.18 20.14 0
979 6 -21.96 20.14 0
980 6 -21.74 20.14 0
981 6 -13.46 21.46 0
982 6 -13.24 21.46 0
983 6 -13.02 21.46 0
984 6 -12.8 21.46 0
985 6 -12.58 21.46 0
986 6 -12.36 21.46 0
987 6 -12.14 21.46 0
988 6 -13.46 21.24 0
989 6 -13.24 21.24 0
990 6 -13.02 21.24 0
991 6 -12.8 21.24 0
992 6 -12.58 21.24 0
993 6 -12.36 21.24 0
994 6 -12.14 21.24 0
995 6 -13.46 21.02 0
996 6 -13.24 21.02 0
997 6 -13.02 21.02 0
998 6 -12.8 21.02 0
999 6 -12.58 21.02 0
1000 6 -12.36 21.02 0
1001 6 -12.14 21.02 0
1002 6 -13.46 20.8 0
1003 6 -13.24 20.8 0
1004 6 -13.02 20.8 0
1005 6 -12.8 20.8 0
1006 6 -12.58 20.8 0
1007 6 -12.36 20.8 0
1008 6 -12.14 20.8 0
1009 6 -13.46 20.58 0
1010 6 -13.24 20.58 0
1011 6 -13.02 20.58 0
1012 6 -12.8 20.58 0
1013 6 -12.58 20.58 0
1014 6 -12.36 20.58 0
1015 6 -12.14 20.58 0
1016 6 -13.46 20.36 0
1017 6 -13.24 20.36 0
1018 6 -13.02 20.36 0
1019 6 -12.8 20.36 0
1020 6 -12.58 20.36 0
1021 6 -12.36 20.36 0
1022 6 -12.14 20.36 0
1023 6 -13.46 20.14 0
1024 6 -13.24 20.14 0
1025 6 -13.02 20.14 0
1026 6 -12.8 20.14 0
1027 6 -12.58 20.14 0
1028 6 -12.36 20.14 0
1029 6 -12.14 20.14 0
1030 6 -5.46 21.46 0
1031 6 -5.24 21.46 0
1032 6 -5.02 21.46 0
1033 6 -4.8 21.46 0
1034 6 -4.58 21.46 0
1035 6 -4.36 21.46 0
1036 6 -4.14 21.46 0
1037 6 -5.46 21.24 0
1038 6 -5.24 21.24 0
1039 6 -5.02 21.24 0
1040 6 -4.8 21.24 0
1041 6 -4.58 21.24 0
1042 6 -4.36 21.24 0
1043 6 -4.14 21.24 0
1044 6 -5.46 21.02 0
1045 6 -5.24 21.02 0
1046 6 -5.02 21.02 0
1047 6 -4.8 21.02 0
1048 6 -4.58 21.02 0
1049 6 -4.36 21.02 0
1050 6 -4.14 21.02 0
1051 6 -5.46 20.8 0
1052 6 -5.24 20.8 0
1053 6 -5.02 20.8 0
1054 6 -4.8 20.8 0
1055 6 -4.58 20.8 0
1056 6 -4.36 20.8 0
1057 6 -4.14 20.8 0
1058 6 -5.46 20.58 0
1059 6 -5.24 20.58 0
1060 6 -5.02 20.58 0
1061 6 -4.8 20.58 0
1062 6 -4.58 20.58 0
1063 6 -4.36 20.58 0
1064 6 -4.14 20.58 0
1065 6 -5.46 20.36 0
1066 6 -5.24 20.36 0
1067 6 -5.02 20.36 0
1068 6 -4.8 20.36 0
1069 6 -4.58 20.36 0
1070 6 -4.36 20.36 0
1071 6 -4.14 20.36 0
1072 6 -5.46 20.14 0
1073 6 -5.24 20.14 0
1074 6 -5.02 20.14 0
1075 6 -4.8 20.14 0
1076 6 -4.58 20.14 0
1077 6 -4.36 20.14 0
1078 6 -4.14 20.14 0
1079 6 -3.86 21.46 0
1080 6 -3.64 21.46 0
1081 6 -3.42 21.46 0
1082 6 -3.2 21.46 0
1083 6 -2.98 21.46 0
1084 6 -2.76 21.46 0
1085 6 -2.54 21.46 0
1086 6 -3.86 21.24 0
1087 6 -3.64 21.24 0
1088 6 -3.42 21.24 0
1089 6 -3.2 21.24 0
1090 6 -2.98 21.24 0
1091 6 -2.76 21.24 0
1092 6 -2.54 21.24 0
1093 6 -3.86 21.02 0
1094 6 -3.64 21.02 0
1095 6 -3.42 21.02 0
1096 6 -3.2 21.02 0
1097 6 -2.98 21.02 0
1098 6 -2.76 21.02 0
1099 6 -2.54 21.02 0
1100 6 -3.86 20.8 0
1101 6 -3.64 20.8 0
1102 6 -3.42 20.8 0
1103 6 -3.2 20.8 0
1104 6 -2.98 20.8 0
1105 6 -2.76 20.8 0
1106 6 -2.54 20.8 0
1107 6 -3.86 20.58 0
1108 6 -3.64 20.58 0
1109 6 -3.42 20.58 0
1110 6 -3.2 20.58 0
1111 6 -2.98 20.58 0
1112 6 -2.76 20.58 0
1113 6 -2.54 20.58 0
1114 6 -3.86 20.36 0
1115 6 -3.64 20.36 0
1116 6 -3.42 20.36 0
1117 6 -3.2 20.36 0
1118 6 -2.98 20.36 0
1119 6 -2.76 20.36 0
1120 6 -2.54 20.36 0
1121 6 -3.86 20.14 0
1122 6 -3.64 20.14 0
1123 6 -3.42 20.14 0
1124 6 -3.2 20.14 0
1125 6 -2.98 20.14 0
1126 6 -2.76 20.14 0
1127 6 -2.54 20.14 0
1128 6 -0.66 21.46 0
1129 6 -0.44 21.46 0
1130 6 -0.22 21.46 0
1131 6 0 21.46 0
1132 6 0.22 21.46 0
1133 6 0.44 21.46 0
1134 6 0.66 21.46 0
1135 6 -0.66 21.24 0
1136 6 -0.44 21.24 0
1137 6 -0.22 21.24 0
1138 6 0 21.24 0
1139 6 0.22 21.24 0
1140 6 0.44 21.24 0
1141 6 0.66 21.24 0
1142 6 -0.66 21.02 0
1143 6 -0.44 21.02 0
1144 6 -0.22 21.02 0
1145 6 0 21.02 0
1146 6 0.22 21.02 0
1147 6 0.44 21.02 0
1148 6 0.66 21.02 0
1149 6 -0.66 20.8 0
1150 6 -0.44 20.8 0
1151 6 -0.22 20.8 0
1152 6 0 20.8 0
1153 6 0.22 20.8 0
1154 6 0.44 20.8 0
1155 6 0.66 20.8 0
1156 6 -0.66 20.58 0
1157 6 -0.44 20.58 0
1158 6 -0.22 20.58 0
1159 6 0 20.58 0
1160 6 0.22 20.58 0
1161 6 0.44 20.58 0
1162 6 0.66 20.58 0
1163 6 -0.66 20.36 0
1164 6 -0.44 20.36 0
1165 6 -0.22 20.36 0
1166 6 0 20.36 0
1167 6 0.22 20.36 0
1168 6 0.44 20.36 0
1169 6 0.66 20.36 0
1170 6 -0.66 20.14 0
1171 6 -0.44 20.14 0
1172 6 -0.22 20.14 0
1173 6 0 20.14 0
1174 6 0.22 20.14 0
1175 6 0.44 20.14 0
1176 6 0.66 20.14 0
1177 6 4.14 21.46 0
1178 6 4.36 21.46 0
1179 6 4.58 21.46 0
1180 6 4.8 21.46 0
1181 6 5.02 21.46 0
1182 6 5.24 21.46 0
1183 6 5.46 21.46 0
1184 6 4.14 21.24 0
1185 6 4.36 21.24 0
1186 6 4.58 21.24 0
1187 6 4.8 21.24 0
1188 6 5.02 21.24 0
1189 6 5.24 21.24 0
1190 6 5.46 21.24 0
1191 6 4.14 21.02 0
1192 6 4.36 21.02 0
1193 6 4.58 21.02 0
1194 6 4.8 21.02 0
1195 6 5.02 21.02 0
1196 6 5.24 21.02 0
1197 6 5.46 21.02 0
1198 6 4.14 20.8 0
1199 6 4.36 20.8 0
1200 6 4.58 20.8 0
1201 6 4.8 20.8 0
1202 6 5.02 20.8 0
1203 6 5.24 20.8 0
1204 6 5.46 20.8 0
1205 6 4.14 20.58 0
1206 6 4.36 20.58 0
1207 6 4.58 20.58 0
1208 6 4.8 20.58 0
1209 6 5.02 20.58 0
1210 6 5.24 20.58 0
1211 6 5.46 20.58 0
1212 6 4.14 20.36 0
1213 6 4.36 20.36 0
1214 6 4.58 20.36 0
1215 6 4.8 20.36 0
1216 6 5.02 20.36 0
1217 6 5.24 20.36 0
1218 6 5.46 20.36 0
1219 6 4.14 20.14 0
1220 6 4.36 20.14 0
1221 6 4.58 20.14 0
1222 6 4.8 20.14 0
1223 6 5.02 20.14 0
1224 6 5.24 20.14 0
1225 6 5.46 20.14 0
1226 6 8.94 21.46 0
1227 6 9.16 21.46 0
1228 6 9.38 21.46 0
1229 6 9.6 21.46 0
1230 6 9.82 21.46 0
1231 6 10.04 21.46 0
1232 6 10.26 21.46 0
1233 6 8.94 21.24 0
1234 6 9.16 21.24 0
1235 6 9.38 21.24 0
1236 6 9.6 21.24 0
1237 6 9.82 21.24 0
1238 6 10.04 21.24 0
1239 6 10.26 21.24 0
1240 6 8.94 21.02 0
1241 6 9.16 21.02 0
1242 6 9.38 21.02 0
1243 6 9.6 21.02 0
1244 6 9.82 21.02 0
1245 6 10.04 21.02 0
1246 6 10.26 21.02 0
1247 6 8.94 20.8 0
1248 6 9.16 20.8 0
1249 6 9.38 20.8 0
1250 6 9.6 20.8 0
1251 6 9.82 20.8 0
1252 6 10.04 20.8 0
1253 6 10.26 20.8 0
1254 6 8.94 20.58 0
1255 6 9.16 20.58 0
1256 6 9.38 20.58 0
1257 6 9.6 20.58 0
1258 6 9.82 20.58 0
1259 6 10.04 20.58 0
1260 6 10.26 20.58 0
1261 6 8.94 20.36 0
1262 6 9.16 20.36 0
1263 6 9.38 20.36 0
1264 6 9.6 20.36 0
1265 6 9.82 20.36 0
1266 6 10.04 20.36 0
1267 6 10.26 20.36 0
1268 6 8.94 20.14 0
1269 6 9.16 20.14 0
1270 6 9.38 20.14 0
1271 6 9.6 20.14 0
1272 6 9.82 20.14 0
1273 6 10.04 20.14 0
1274 6 10.26 20.14 0
1275 6 12.14 21.46 0
1276 6 12.36 21.46 0
1277 6 12.58 21.46 0
1278 6 12.8 21.46 0
1279 6 13.02 21.46 0
1280 6 13.24 21.46 0
1281 6 13.46 21.46 0
1282 6 12.14 21.24 0
1283 6 12.36 21.24 0
1284 6 12.58 21.24 0
1285 6 12.8 21.24 0
1286 6 13.02 21.24 0
1287 6 13.24 21.24 0
1288 6 13.46 21.24 0
1289 6 12.14 21.02 0
1290 6 12.36 21.02 0
1291 6 12.58 21.02 0
1292 6 12.8 21.02 0
1293 6 13.02 21.02 0
1294 6 13.24 21.02 0
1295 6 13.46 21.02 0
1296 6 12.14 20.8 0
1297 6 12.36 20.8 0
1298 6 12.58 20.8 0
1299 6 12.8 20.8 0
1300 6 13.02 20.8 0
1301 6 13.24 20.8 0
1302 6 13.46 20.8 0
1303 6 12.14 20.58 0
1304 6 12.36 20.58 0
1305 6 12.58 20.58 0
1306 6 12.8 20.58 0
1307 6 13.02 20.58 0
1308 6 13.24 20.58 0
1309 6 13.46 20.58 0
1310 6 12.14 20.36 0
1311 6 12.36 20.36 0
1312 6 12.58 20.36 0
1313 6 12.8 20.36 0
1314 6 13.02 20.36 0
1315 6 13.24 20.36 0
1316 6 13.46 20.36 0
1317 6 12.14 20.14 0
1318 6 12.36 20.14 0
1319 6 12.58 20.14 0
1320 6 12.8 20.14 0
1321 6 13.02 20.14 0
1322 6 13.24 20.14 0
1323 6 13.46 20.14 0
1324 6 21.74 21.46 0
1325 6 21.96 21.46 0
1326 6 22.18 21.46 0
1327 6 22.4 21.46 0
1328 6 22.62 21.46 0
1329 6 22.84 21.46 0
1330 6 23.06 21.46 0
1331 6 21.74 21.24 0
1332 6 21.96 21.24 0
1333 6 22.18 21.24 0
1334 6 22.4 21.24 0
1335 6 22.62 21.24 0
1336 6 22.84 21.24 0
1337 6 23.06 21.24 0
1338 6 21.74 21.02 0
1339 6 21.96 21.02 0
1340 6 22.18 21.02 0
1341 6 22.4 21.02 0
1342 6 22.62 21.02 0
1343 6 22.84 21.02 0
1344 6 23.06 21.02 0
1345 6 21.74 20.8 0
1346 6 21.96 20.8 0
1347 6 22.18 20.8 0
1348 6 22.4 20.8 0
1349 6 22.62 20.8 0
1350 6 22.84 20.8 0
1351 6 23.06 20.8 0
1352 6 21.74 20.58 0
1353 6 21.96 20.58 0
1354 6 22.18 20.58 0
1355 6 22.4 20.58 0
1356 6 22.62 20.58 0
1357 6 22.84 20.58 0
1358 6 23.06 20.58 0
1359 6 21.74 20.36 0
1360 6 21.96 20.36 0
1361 6 22.18 20.36 0
1362 6 22.4 20.36 0
1363 6 22.62 20.36 0
1364 6 22.84 20.36 0
1365 6 23.06 20.36 0
1366 6 21.74 20.14 0
1367 6 21.96 20.14 0
1368 6 22.18 20.14 0
1369 6 22.4 20.14 0
1370 6 22.62 20.14 0
1371 6 22.84 20.14 0
1372 6 23.06 20.14 0
1373 6 -23.06 19.86 0
1374 6 -22.84 19.86 0
1375 6 -22.62 19.86 0
1376 6 -22.4 19.86 0
1377 6 -22.18 19.86 0
1378 6 -21.96 19.86 0
1379 6 -21.74 19.86 0
1380 6 -23.06 19.64 0
1381 6 -22.84 19.64 0
1382 6 -22.62 19.64 0
1383 6 -22.4 19.64 0
1384 6 -22.18 19.64 0
1385 6 -21.96 19.64 0
1386 6 -21.74 19.64 0
1387 6 -23.06 19.42 0
1388 6 -22.84 19.42 0
1389 6 -22.62 19.42 0
1390 6 -22.4 19.42 0
1391 6 -22.18 19.42 0
1392 6 -21.96 19.42 0
1393 6 -21.74 19.42 0
1394 6 -23.06 19.2 0
1395 6 -22.84 19.2 0
1396 6 -22.62 19.2 0
1397 6 -22.4 19.2 0
1398 6 -22.18 19.2 0
1399 6 -21.96 19.2 0
1400 6 -21.74 19.2 0
1401 6 -23.06 18.98 0
1402 6 -22.84 18.98 0
1403 6 -22.62 18.98 0
1404 6 -22.4 18.98 0
1405 6 -22.18 18.98 0
1406 6 -21.96 18.98 0
1407 6 -21.74 18.98 0
1408 6 -23.06 18.76 0
1409 6 -22.84 18.76 0
1410 6 -22.62 18.76 0
1411 6 -22.4 18.76 0
1412 6 -22.18 18.76 0
1413 6 -21.96 18.76 0
1414 6 -21.74 18.76 0
1415 6 -23.06 18.54 0
1416 6 -22.84 18.54 0
1417 6 -22.62 18.54 0
1418 6 -22.4 18.54 0
1419 6 -22.18 18.54 0
1420 6 -21.96 18.54 0
1421 6 -21.74 18.54 0
1422 6 -19.86 19.86 0
1423 6 -19.64 19.86 0
1424 6 -19.42 19.86 0
1425 6 -19.2 19.86 0
1426 6 -18.98 19.86 0
1427 6 -18.76 19.86 0
1428 6 -18.54 19.86 0
1429 6 -19.86 19.64 0
1430 6 -19.64 19.64 0
1431 6 -19.42 19.64 0
1432 6 -19.2 19.64 0
1433 6 -18.98 19.64 0
1434 6 -18.76 19.64 0
1435 6 -18.54 19.64 0
1436 6 -19.86 19.42 0
1437 6 -19.64 19.42 0
1438 6 -19.42 19.42 0
1439 6 -19.2 19.42 0
1440 6 -18.98 19.42 0
1441 6 -18.76 19.42 0
1442 6 -18.54 19.42 0
1443 6 -19.86 19.2 0
1444 6 -19.64 19.2 0
1445 6 -19.42 19.2 0
1446 6 -19.2 19.2 0
1447 6 -18.98 19.2 0
1448 6 -18.76 19.2 0
1449 6 -18.54 19.2 0
1450 6 -19.86 18.98 0
1451 6 -19.64 18.98 0
1452 6 -19.42 18.98 0
1453 6 -19.2 18.98 0
1454 6 -18.98 18.98 0
1455 6 -18.76 18.98 0
1456 6 -18.54 18.98 0
1457 6 -19.86 18.76 0
1458 6 -19.64 18.76 0
1459 6 -19.42 18.76 0
1460 6 -19.2 18.76 0
1461 6 -18.98 18.76 0
1462 6 -18.76 18.76 0
1463 6 -18.54 18.76 0
1464 6 -19.86 18.54 0
1465 6 -19.64 18.54 0
1466 6 -19.42 18.54 0
1467 6 -19.2 18.54 0
1468 6 -18.98 18.54 0
1469 6 -18.76 18.54 0
1470 6 -18.54 18.54 0
1471 6 -18.26 19.86 0
1472 6 -18.04 19.86 0
1473 6 -17.82 19.86 0
1474 6 -17.6 19.86 0
1475 6 -17.38 19.86 0