ITEM: TIMESTEP
0
ITEM: NUMBER OF ATOMS
2916
ITEM: BOX BOUNDS pp pp pp
-13.35 13.35
-13.35 13.35
-2.08 2
ITEM: ATOMS id type x y z signal
1 6 -11.35 11.35 0 1
2 6 -11.05 11.35 0 1
3 6 -10.75 11.35 0 1
4 6 -11.35 11.05 0 1
5 6 -11.05 11.05 0 1
6 6 -10.75 11.05 0 1
7 6 -11.35 10.75 0 1
8 6 -11.05 10.75 0 1
9 6 -10.75 10.75 0 1
10 1 -10.05 11.35 -0.08 0
11 1 -9.75 11.35 -0.08 0
12 1 -9.45 11.35 -0.08 0
13 1 -10.05 11.05 -0.08 0
14 1 -9.75 11.05 -0.08 0
15 1 -9.45 11.05 -0.08 0
16 1 -10.05 10.75 -0.08 0
17 1 -9.75 10.75 -0.08 0
18 1 -9.45 10.75 -0.08 0
19 1 -8.75 11.35 -0.08 0
20 1 -8.45 11.35 -0.08 0
21 1 -8.15 11.35 -0.08 0
22 1 -8.75 11.05 -0.08 0
23 1 -8.45 11.05 -0.08 0
24 1 -8.15 11.05 -0.08 0
25 1 -8.75 10.75 -0.08 0
26 1 -8.45 10.75 -0.08 0
27 1 -8.15 10.75 -0.08 0
28 1 -7.45 11.35 -0.08 0
29 1 -7.15 11.35 -0.08 0
30 1 -6.85 11.35 -0.08 0
31 1 -7.45 11.05 -0.08 0
32 1 -7.15 11.05 -0.08 0
33 1 -6.85 11.05 -0.08 0
34 1 -7.45 10.75 -0.08 0
35 1 -7.15 10.75 -0.08 0
36 1 -6.85 10.75 -0.08 0
37 1 -6.15 11.35 -0.08 0
38 1 -5.85 11.35 -0.08 0
39 1 -5.55 11.35 -0.08 0
40 1 -6.15 11.05 -0.08 0
41 1 -5.85 11.05 -0.08 0
42 1 -5.55 11.05 -0.08 0
43 1 -6.15 10.75 -0.08 0
44 1 -5.85 10.75 -0.08 0
45 1 -5.55 10.75 -0.08 0
46 1 -4.85 11.35 -0.08 0
47 1 -4.55 11.35 -0.08 0
48 1 -4.25 11.35 -0.08 0
49 1 -4.85 11.05 -0.08 0
50 1 -4.55 11.05 -0.08 0
51 1 -4.25 11.05 -0.08 0
52 1 -4.85 10.75 -0.08 0
53 1 -4.55 10.75 -0.08 0
54 1 -4.25 10.75 -0.08 0
55 1 -3.55 11.35 -0.08 0
56 1 -3.25 11.35 -0.08 0
57 1 -2.95 11.35 -0.08 0
58 1 -3.55 11.05 -0.08 0
59 1 -3.25 11.05 -0.08 0
60 1 -2.95 11.05 -0.08 0
61 1 -3.55 10.75 -0.08 0
62 1 -3.25 10.75 -0.08 0
63 1 -2.95 10.75 -0.08 0
64 1 -2.25 11.35 -0.08 0
65 1 -1.95 11.35 -0.08 0
66 1 -1.65 11.35 -0.08 0
67 1 -2.25 11.05 -0.08 0
68 1 -1.95 11.05 -0.08 0
69 1 -1.65 11.05 -0.08 0
70 1 -2.25 10.75 -0.08 0
71 1 -1.95 10.75 -0.08 0
72 1 -1.65 10.75 -0.08 0
73 1 -0.95 11.35 -0.08 0
74 1 -0.65 11.35 -0.08 0
75 1 -0.35 11.35 -0.08 0
76 1 -0.95 11.05 -0.08 0
77 1 -0.65 11.05 -0.08 0
78 1 -0.35 11.05 -0.08 0
79 1 -0.95 10.75 -0.08 0
80 1 -0.65 10.75 -0.08 0
81 1 -0.35 10.75 -0.08 0
82 1 0.35 11.35 -0.08 0
83 1 0.65 11.35 -0.08 0
84 1 0.95 11.35 -0.08 0
85 1 0.35 11.05 -0.08 0
86 1 0.65 11.05 -0.08 0
87 1 0.95 11.05 -0.08 0
88 1 0.35 10.75 -0.08 0
89 1 0.65 10.75 -0.08 0
90 1 0.95 10.75 -0.08 0
91 1 1.65 11.35 -0.08 0
92 1 1.95 11.35 -0.08 0
93 1 2.25 11.35 -0.08 0
94 1 1.65 11.05 -0.08 0
95 1 1.95 11.05 -0.08 0
96 1 2.25 11.05 -0.08 0
97 1 1.65 10.75 -0.08 0
98 1 1.95 10.75 -0.08 0
99 1 2.25 10.75 -0.08 0
100 1 2.95 11.35 -0.08 0
101 1 3.25 11.35 -0.08 0
102 1 3.55 11.35 -0.08 0
103 1 2.95 11.05 -0.08 0
104 1 3.25 11.05 -0.08 0
105 1 3.55 11.05 -0.08 0
106 1 2.95 10.75 -0.08 0
107 1 3.25 10.75 -0.08 0
108 1 3.55 10.75 -0.08 0
109 1 4.25 11.35 -0.08 0
110 1 4.55 11.35 -0.08 0
111 1 4.85 11.35 -0.08 0
112 1 4.25 11.05 -0.08 0
113 1 4.55 11.05 -0.08 0
114 1 4.85 11.05 -0.08 0
115 1 4.25 10.75 -0.08 0
116 1 4.55 10.75 -0.08 0
117 1 4.85 10.75 -0.08 0
118 1 5.55 11.35 -0.08 0
119 1 5.85 11.35 -0.08 0
120 1 6.15 11.35 -0.08 0
121 1 5.55 11.05 -0.08 0
122 1 5.85 11.05 -0.08 0
123 1 6.15 11.05 -0.08 0
124 1 5.55 10.75 -0.08 0
125 1 5.85 10.75 -0.08 0
126 1 6.15 10.75 -0.08 0
127 1 6.85 11.35 -0.08 0
128 1 7.15 11.35 -0.08 0
129 1 7.45 11.35 -0.08 0
130 1 6.85 11.05 -0.08 0
131 1 7.15 11.05 -0.08 0
132 1 7.45 11.05 -0.08 0
133 1 6.85 10.75 -0.08 0
134 1 7.15 10.75 -0.08 0
135 1 7.45 10.75 -0.08 0
136 1 8.15 11.35 -0.08 0
137 1 8.45 11.35 -0.08 0
138 1 8.75 11.35 -0.08 0
139 1 8.15 11.05 -0.08 0
140 1 8.45 11.05 -0.08 0
141 1 8.75 11.05 -0.08 0
142 1 8.15 10.75 -0.08 0
143 1 8.45 10.75 -0.08 0
144 1 8.75 10.75 -0.08 0
145 1 9.45 11.35 -0.08 0
146 1 9.75 11.35 -0.08 0
147 1 10.05 11.35 -0.08 0
148 1 9.45 11.05 -0.08 0
149 1 9.75 11.05 -0.08 0
150 1 10.05 11.05 -0.08 0
151 1 9.45 10.75 -0.08 0
152 1 9.75 10.75 -0.08 0
153 1 10.05 10.75 -0.08 0
154 1 10.75 11.35 -0.08 0
155 1 11.05 11.35 -0.08 0
156 1 11.35 11.35 -0.08 0
157 1 10.75 11.05 -0.08 0
158 1 11.05 11.05 -0.08 0
159 1 11.35 11.05 -0.08 0
160 1 10.75 10.75 -0.08 0
161 1 11.05 10.75 -0.08 0
162 1 11.35 10.75 -0.08 0
163 1 -11.35 10.05 -0.08 0
164 1 -11.05 10.05 -0.08 0
165 1 -10.75 10.05 -0.08 0
166 1 -11.35 9.75 -0.08 0
167 1 -11.05 9.75 -0.08 0
168 1 -10.75 9.75 -0.08 0
169 1 -11.35 9.45 -0.08 0
170 1 -11.05 9.45 -0.08 0
171 1 -10.75 9.45 -0.08 0
172 6 -10.05 10.05 0 1
173 6 -9.75 10.05 0 1
174 6 -9.45 10.05 0 1
175 6 -10.05 9.75 0 1
176 6 -9.75 9.75 0 1
177 6 -9.45 9.75 0 1
178 6 -10.05 9.45 0 1
179 6 -9.75 9.45 0 1
180 6 -9.45 9.45 0 1
181 1 -8.75 10.05 -0.08 0
182 1 -8.45 10.05 -0.08 0
183 1 -8.15 10.05 -0.08 0
184 1 -8.75 9.75 -0.08 0
185 1 -8.45 9.75 -0.08 0
186 1 -8.15 9.75 -0.08 0
187 1 -8.75 9.45 -0.08 0
188 1 -8.45 9.45 -0.08 0
189 1 -8.15 9.45 -0.08 0
190 1 -7.45 10.05 -0.08 0
191 1 -7.15 10.05 -0.08 0
192 1 -6.85 10.05 -0.08 0
193 1 -7.45 9.75 -0.08 0
194 1 -7.15 9.75 -0.08 0
195 1 -6.85 9.75 -0.08 0
196 1 -7.45 9.45 -0.08 0
197 1 -7.15 9.45 -0.08 0
198 1 -6.85 9.45 -0.08 0
199 1 -6.15 10.05 -0.08 0
200 1 -5.85 10.05 -0.08 0
201 1 -5.55 10.05 -0.08 0
202 1 -6.15 9.75 -0.08 0
203 1 -5.85 9.75 -0.08 0
204 1 -5.55 9.75 -0.08 0
205 1 -6.15 9.45 -0.08 0
206 1 -5.85 9.45 -0.08 0
207 1 -5.55 9.45 -0.08 0
208 1 -4.85 10.05 -0.08 0
209 1 -4.55 10.05 -0.08 0
210 1 -4.25 10.05 -0.08 0
211 1 -4.85 9.75 -0.08 0
212 1 -4.55 9.75 -0.08 0
213 1 -4.25 9.75 -0.08 0
214 1 -4.85 9.45 -0.08 0
215 1 -4.55 9.45 -0.08 0
216 1 -4.25 9.45 -0.08 0
217 1 -3.55 10.05 -0.08 0
218 1 -3.25 10.05 -0.08 0
219 1 -2.95 10.05 -0.08 0
220 1 -3.55 9.75 -0.08 0
221 1 -3.25 9.75 -0.08 0
222 1 -2.95 9.75 -0.08 0
223 1 -3.55 9.45 -0.08 0
224 1 -3.25 9.45 -0.08 0
225 1 -2.95 9.45 -0.08 0
226 1 -2.25 10.05 -0.08 0
227 1 -1.95 10.05 -0.08 0
228 1 -1.65 10.05 -0.08 0
229 1 -2.25 9.75 -0.08 0
230 1 -1.95 9.75 -0.08 0
231 1 -1.65 9.75 -0.08 0
232 1 -2.25 9.45 -0.08 0
233 1 -1.95 9.45 -0.08 0
234 1 -1.65 9.45 -0.08 0
235 1 -0.95 10.05 -0.08 0
236 1 -0.65 10.05 -0.08 0
237 1 -0.35 10.05 -0.08 0
238 1 -0.95 9.75 -0.08 0
239 1 -0.65 9.75 -0.08 0
240 1 -0.35 9.75 -0.08 0
241 1 -0.95 9.45 -0.08 0
242 1 -0.65 9.45 -0.08 0
243 1 -0.35 9.45 -0.08 0
244 1 0.35 10.05 -0.08 0
245 1 0.65 10.05 -0.08 0
246 1 0.95 10.05 -0.08 0
247 1 0.35 9.75 -0.08 0
248 1 0.65 9.75 -0.08 0
249 1 0.95 9.75 -0.08 0
250 1 0.35 9.45 -0.08 0
251 1 0.65 9.45 -0.08 0
252 1 0.95 9.45 -0.08 0
253 1 1.65 10.05 -0.08 0
254 1 1.95 10.05 -0.08 0
255 1 2.25 10.05 -0.08 0
256 1 1.65 9.75 -0.08 0
257 1 1.95 9.75 -0.08 0
258 1 2.25 9.75 -0.08 0
259 1 1.65 9.45 -0.08 0
260 1 1.95 9.45 -0.08 0
261 1 2.25 9.45 -0.08 0
262 1 2.95 10.05 -0.08 0
263 1 3.25 10.05 -0.08 0
264 1 3.55 10.05 -0.08 0
265 1 2.95 9.75 -0.08 0
266 1 3.25 9.75 -0.08 0
267 1 3.55 9.75 -0.08 0
268 1 2.95 9.45 -0.08 0
269 1 3.25 9.45 -0.08 0
270 1 3.55 9.45 -0.08 0
271 1 4.25 10.05 -0.08 0
272 1 4.55 10.05 -0.08 0
273 1 4.85 10.05 -0.08 0
274 1 4.25 9.75 -0.08 0
275 1 4.55 9.75 -0.08 0
276 1 4.85 9.75 -0.08 0
277 1 4.25 9.45 -0.08 0
278 1 4.55 9.45 -0.08 0
279 1 4.85 9.45 -0.08 0
280 1 5.55 10.05 -0.08 0
281 1 5.85 10.05 -0.08 0
282 1 6.15 10.05 -0.08 0
283 1 5.55 9.75 -0.08 0
284 1 5.85 9.75 -0.08 0
285 1 6.15 9.75 -0.08 0
286 1 5.55 9.45 -0.08 0
287 1 5.85 9.45 -0.08 0
288 1 6.15 9.45 -0.08 0
289 1 6.85 10.05 -0.08 0
290 1 7.15 10.05 -0.08 0
291 1 7.45 10.05 -0.08 0
292 1 6.85 9.75 -0.08 0
293 1 7.15 9.75 -0.08 0
294 1 7.45 9.75 -0.08 0
295 1 6.85 9.45 -0.08 0
296 1 7.15 9.45 -0.08 0
297 1 7.45 9.45 -0.08 0
298 1 8.15 10.05 -0.08 0
299 1 8.45 10.05 -0.08 0
300 1 8.75 10.05 -0.08 0
301 1 8.15 9.75 -0.08 0
302 1 8.45 9.75 -0.08 0
303 1 8.75 9.75 -0.08 0
304 1 8.15 9.45 -0.08 0
305 1 8.45 9.45 -0.08 0
306 1 8.75 9.45 -0.08 0
307 1 9.45 10.05 -0.08 0
308 1 9.75 10.05 -0.08 0
309 1 10.05 10.05 -0.08 0
310 1 9.45 9.75 -0.08 0
311 1 9.75 9.75 -0.08 0
312 1 10.05 9.75 -0.08 0
313 1 9.45 9.45 -0.08 0
314 1 9.75 9.45 -0.08 0
315 1 10.05 9.45 -0.08 0
316 1 10.75 10.05 -0.08 0
317 1 11.05 10.05 -0.08 0
318 1 11.35 10.05 -0.08 0
319 1 10.75 9.75 -0.08 0
320 1 11.05 9.75 -0.08 0
321 1 11.35 9.75 -0.08 0
322 1 10.75 9.45 -0.08 0
323 1 11.05 9.45 -0.08 0
324 1 11.35 9.45 -0.08 0
325 1 -11.35 8.75 -0.08 0
326 1 -11.05 8.75 -0.08 0
327 1 -10.75 8.75 -0.08 0
328 1 -11.35 8.45 -0.08 0
329 1 -11.05 8.45 -0.08 0
330 1 -10.75 8.45 -0.08 0
331 1 -11.35 8.15 -0.08 0
332 1 -11.05 8.15 -0.08 0
333 1 -10.75 8.15 -0.08 0
334 1 -10.05 8.75 -0.08 0
335 1 -9.75 8.75 -0.08 0
336 1 -9.45 8.75 -0.08 0
337 1 -10.05 8.45 -0.08 0
338 1 -9.75 8.45 -0.08 0
339 1 -9.45 8.45 -0.08 0
340 1 -10.05 8.15 -0.08 0
341 1 -9.75 8.15 -0.08 0
342 1 -9.45 8.15 -0.08 0
343 6 -8.75 8.75 0 1
344 6 -8.45 8.75 0 1
345 6 -8.15 8.75 0 1
346 6 -8.75 8.45 0 1
347 6 -8.45 8.45 0 1
348 6 -8.15 8.45 0 1
349 6 -8.75 8.15 0 1
350 6 -8.45 8.15 0 1
351 6 -8.15 8.15 0 1
352 1 -7.45 8.75 -0.08 0
353 1 -7.15 8.75 -0.08 0
354 1 -6.85 8.75 -0.08 0
355 1 -7.45 8.45 -0.08 0
356 1 -7.15 8.45 -0.08 0
357 1 -6.85 8.45 -0.08 0
358 1 -7.45 8.15 -0.08 0
359 1 -7.15 8.15 -0.08 0
360 1 -6.85 8.15 -0.08 0
361 1 -6.15 8.75 -0.08 0
362 1 -5.85 8.75 -0.08 0
363 1 -5.55 8.75 -0.08 0
364 1 -6.15 8.45 -0.08 0
365 1 -5.85 8.45 -0.08 0
366 1 -5.55 8.45 -0.08 0
367 1 -6.15 8.15 -0.08 0
368 1 -5.85 8.15 -0.08 0
369 1 -5.55 8.15 -0.08 0
370 1 -4.85 8.75 -0.08 0
371 1 -4.55 8.75 -0.08 0
372 1 -4.25 8.75 -0.08 0
373 1 -4.85 8.45 -0.08 0
374 1 -4.55 8.45 -0.08 0
375 1 -4.25 8.45 -0.08 0
376 1 -4.85 8.15 -0.08 0
377 1 -4.55 8.15 -0.08 0
378 1 -4.25 8.15 -0.08 0
379 1 -3.55 8.75 -0.08 0
380 1 -3.25 8.75 -0.08 0
381 1 -2.95 8.75 -0.08 0
382 1 -3.55 8.45 -0.08 0
383 1 -3.25 8.45 -0.08 0
384 1 -2.95 8.45 -0.08 0
385 1 -3.55 8.15 -0.08 0
386 1 -3.25 8.15 -0.08 0
387 1 -2.95 8.15 -0.08 0
388 1 -2.25 8.75 -0.08 0
389 1 -1.95 8.75 -0.08 0
390 1 -1.65 8.75 -0.08 0
391 1 -2.25 8.45 -0.08 0
392 1 -1.95 8.45 -0.08 0
393 1 -1.65 8.45 -0.08 0
394 1 -2.25 8.15 -0.08 0
395 1 -1.95 8.15 -0.08 0
396 1 -1.65 8.15 -0.08 0
397 1 -0.95 8.75 -0.08 0
398 1 -0.65 8.75 -0.08 0
399 1 -0.35 8.75 -0.08 0
400 1 -0.95 8.45 -0.08 0
401 1 -0.65 8.45 -0.08 0
402 1 -0.35 8.45 -0.08 0
403 1 -0.95 8.15 -0.08 0
404 1 -0.65 8.15 -0.08 0
405 1 -0.35 8.15 -0.08 0
406 1 0.35 8.75 -0.08 0
407 1 0.65 8.75 -0.08 0
408 1 0.95 8.75 -0.08 0
409 1 0.35 8.45 -0.08 0
410 1 0.65 8.45 -0.08 0
411 1 0.95 8.45 -0.08 0
412 1 0.35 8.15 -0.08 0
413 1 0.65 8.15 -0.08 0
414 1 0.95 8.15 -0.08 0
415 1 1.65 8.75 -0.08 0
416 1 1.95 8.75 -0.08 0
417 1 2.25 8.75 -0.08 0
418 1 1.65 8.45 -0.08 0
419 1 1.95 8.45 -0.08 0
420 1 2.25 8.45 -0.08 0
421 1 1.65 8.15 -0.08 0
422 1 1.95 8.15 -0.08 0
423 1 2.25 8.15 -0.08 0
424 1 2.95 8.75 -0.08 0
425 1 3.25 8.75 -0.08 0
426 1 3.55 8.75 -0.08 0
427 1 2.95 8.45 -0.08 0
428 1 3.25 8.45 -0.08 0
429 1 3.55 8.45 -0.08 0
430 1 2.95 8.15 -0.08 0
431 1 3.25 8.15 -0.08 0
432 1 3.55 8.15 -0.08 0
433 1 4.25 8.75 -0.08 0
434 1 4.55 8.75 -0.08 0
435 1 4.85 8.75 -0.08 0
436 1 4.25 8.45 -0.08 0
437 1 4.55 8.45 -0.08 0
438 1 4.85 8.45 -0.08 0
439 1 4.25 8.15 -0.08 0
440 1 4.55 8.15 -0.08 0
441 1 4.85 8.15 -0.08 0
442 1 5.55 8.75 -0.08 0
443 1 5.85 8.75 -0.08 0
444 1 6.15 8.75 -0.08 0
445 1 5.55 8.45 -0.08 0
446 1 5.85 8.45 -0.08 0
447 1 6.15 8.45 -0.08 0
448 1 5.55 8.15 -0.08 0
449 1 5.85 8.15 -0.08 0
450 1 6.15 8.15 -0.08 0
451 1 6.85 8.75 -0.08 0
452 1 7.15 8.75 -0.08 0
453 1 7.45 8.75 -0.08 0
454 1 6.85 8.45 -0.08 0
455 1 7.15 8.45 -0.08 0
456 1 7.45 8.45 -0.08 0
457 1 6.85 8.15 -0.08 0
458 1 7.15 8.15 -0.08 0
459 1 7.45 8.15 -0.08 0
460 1 8.15 8.75 -0.08 0
461 1 8.45 8.75 -0.08 0
462 1 8.75 8.75 -0.08 0
463 1 8.15 8.45 -0.08 0
464 1 8.45 8.45 -0.08 0
465 1 8.75 8.45 -0.08 0
466 1 8.15 8.15 -0.08 0
467 1 8.45 8.15 -0.08 0
468 1 8.75 8.15 -0.08 0
469 1 9.45 8.75 -0.08 0
470 1 9.75 8.75 -0.08 0
471 1 10.05 8.75 -0.08 0
472 1 9.45 8.45 -0.08 0
473 1 9.75 8.45 -0.08 0
474 1 10.05 8.45 -0.08 0
475 1 9.45 8.15 -0.08 0
476 1 9.75 8.15 -0.08 0
477 1 10.05 8.15 -0.08 0
478 1 10.75 8.75 -0.08 0
479 1 11.05 8.75 -0.08 0
480 1 11.35 8.75 -0.08 0
481 1 10.75 8.45 -0.08 0
482 1 11.05 8.45 -0.08 0
483 1 11.35 8.45 -0.08 0
484 1 10.75 8.15 -0.08 0
485 1 11.05 8.15 -0.08 0
486 1 11.35 8.15 -0.08 0
487 1 -11.35 7.45 -0.08 0
488 1 -11.05 7.45 -0.08 0
489 1 -10.75 7.45 -0.08 0
490 1 -11.35 7.15 -0.08 0
491 1 -11.05 7.15 -0.08 0
492 1 -10.75 7.15 -0.08 0
493 1 -11.35 6.85 -0.08 0
494 1 -11.05 6.85 -0.08 0
495 1 -10.75 6.85 -0.08 0
496 1 -10.05 7.45 -0.08 0
497 1 -9.75 7.45 -0.08 0
498 1 -9.45 7.45 -0.08 0
499 1 -10.05 7.15 -0.08 0
500 1 -9.75 7.15 -0.08 0
501 1 -9.45 7.15 -0.08 0
502 1 -10.05 6.85 -0.08 0
503 1 -9.75 6.85 -0.08 0
504 1 -9.45 6.85 -0.08 0
505 6 -8.75 7.45 0 1
506 6 -8.45 7.45 0 1
507 6 -8.15 7.45 0 1
508 6 -8.75 7.15 0 1
509 6 -8.45 7.15 0 1
510 6 -8.15 7.15 0 1
511 6 -8.75 6.85 0 1
512 6 -8.45 6.85 0 1
513 6 -8.15 6.85 0 1
514 6 -7.45 7.45 0 1
515 6 -7.15 7.45 0 1
516 6 -6.85 7.45 0 1
517 6 -7.45 7.15 0 1
518 6 -7.15 7.15 0 1
519 6 -6.85 7.15 0 1
520 6 -7.45 6.85 0 1
521 6 -7.15 6.85 0 1
522 6 -6.85 6.85 0 1
523 6 -6.15 7.45 0 1
524 6 -5.85 7.45 0 1
525 6 -5.55 7.45 0 1
526 6 -6.15 7.15 0 1
527 6 -5.85 7.15 0 1
528 6 -5.55 7.15 0 1
529 6 -6.15 6.85 0 1
530 6 -5.85 6.85 0 1
531 6 -5.55 6.85 0 1
532 6 -4.85 7.45 0 1
533 6 -4.55 7.45 0 1
534 6 -4.25 7.45 0 1
535 6 -4.85 7.15 0 1
536 6 -4.55 7.15 0 1
537 6 -4.25 7.15 0 1
538 6 -4.85 6.85 0 1
539 6 -4.55 6.85 0 1
540 6 -4.25 6.85 0 1
541 1 -3.55 7.45 -0.08 0
542 1 -3.25 7.45 -0.08 0
543 1 -2.95 7.45 -0.08 0
544 1 -3.55 7.15 -0.08 0
545 1 -3.25 7.15 -0.08 0
546 1 -2.95 7.15 -0.08 0
547 1 -3.55 6.85 -0.08 0
548 1 -3.25 6.85 -0.08 0
549 1 -2.95 6.85 -0.08 0
550 1 -2.25 7.45 -0.08 0
551 1 -1.95 7.45 -0.08 0
552 1 -1.65 7.45 -0.08 0
553 1 -2.25 7.15 -0.08 0
554 1 -1.95 7.15 -0.08 0
555 1 -1.65 7.15 -0.08 0
556 1 -2.25 6.85 -0.08 0
557 1 -1.95 6.85 -0.08 0
558 1 -1.65 6.85 -0.08 0
559 1 -0.95 7.45 -0.08 0
560 1 -0.65 7.45 -0.08 0
561 1 -0.35 7.45 -0.08 0
562 1 -0.95 7.15 -0.08 0
563 1 -0.65 7.15 -0.08 0
564 1 -0.35 7.15 -0.08 0
565 1 -0.95 6.85 -0.08 0
566 1 -0.65 6.85 -0.08 0
567 1 -0.35 6.85 -0.08 0
568 1 0.35 7.45 -0.08 0
569 1 0.65 7.45 -0.08 0
570 1 0.95 7.45 -0.08 0
571 1 0.35 7.15 -0.08 0
572 1 0.65 7.15 -0.08 0
573 1 0.95 7.15 -0.08 0
574 1 0.35 6.85 -0.08 0
575 1 0.65 6.85 -0.08 0
576 1 0.95 6.85 -0.08 0
577 1 1.65 7.45 -0.08 0
578 1 1.95 7.45 -0.08 0
579 1 2.25 7.45 -0.08 0
580 1 1.65 7.15 -0.08 0
581 1 1.95 7.15 -0.08 0
582 1 2.25 7.15 -0.08 0
583 1 1.65 6.85 -0.08 0
584 1 1.95 6.85 -0.08 0
585 1 2.25 6.85 -0.08 0
586 1 2.95 7.45 -0.08 0
587 1 3.25 7.45 -0.08 0
588 1 3.55 7.45 -0.08 0
589 1 2.95 7.15 -0.08 0
590 1 3.25 7.15 -0.08 0
591 1 3.55 7.15 -0.08 0
592 1 2.95 6.85 -0.08 0
593 1 3.25 6.85 -0.08 0
594 1 3.55 6.85 -0.08 0
595 1 4.25 7.45 -0.08 0
596 1 4.55 7.45 -0.08 0
597 1 4.85 7.45 -0.08 0
598 1 4.25 7.15 -0.08 0
599 1 4.55 7.15 -0.08 0
600 1 4.85 7.15 -0.08 0
601 1 4.25 6.85 -0.08 0
602 1 4.55 6.85 -0.08 0
603 1 4.85 6.85 -0.08 0
604 1 5.55 7.45 -0.08 0
605 1 5.85 7.45 -0.08 0
606 1 6.15 7.45 -0.08 0
607 1 5.55 7.15 -0.08 0
608 1 5.85 7.15 -0.08 0
609 1 6.15 7.15 -0.08 0
610 1 5.55 6.85 -0.08 0
611 1 5.85 6.85 -0.08 0
612 1 6.15 6.85 -0.08 0
613 1 6.85 7.45 -0.08 0
614 1 7.15 7.45 -0.08 0
615 1 7.45 7.45 -0.08 0
616 1 6.85 7.15 -0.08 0
617 1 7.15 7.15 -0.08 0
618 1 7.45 7.15 -0.08 0
619 1 6.85 6.85 -0.08 0
620 1 7.15 6.85 -0.08 0
621 1 7.45 6.85 -0.08 0
622 1 8.15 7.45 -0.08 0
623 1 8.45 7.45 -0.08 0
624 1 8.75 7.45 -0.08 0
625 1 8.15 7.15 -0.08 0
626 1 8.45 7.15 -0.08 0
627 1 8.75 7.15 -0.08 0
628 1 8.15 6.85 -0.08 0
629 1 8.45 6.85 -0.08 0
630 1 8.75 6.85 -0.08 0
631 1 9.45 7.45 -0.08 0
632 1 9.75 7.45 -0.08 0
633 1 10.05 7.45 -0.08 0
634 1 9.45 7.15 -0.08 0
635 1 9.75 7.15 -0.08 0
636 1 10.05 7.15 -0.08 0
637 1 9.45 6.85 -0.08 0
638 1 9.75 6.85 -0.08 0
639 1 10.05 6.85 -0.08 0
640 1 10.75 7.45 -0.08 0
641 1 11.05 7.45 -0.08 0
642 1 11.35 7.45 -0.08 0
643 1 10.75 7.15 -0.08 0
644 1 11.05 7.15 -0.08 0
645 1 11.35 7.15 -0.08 0
646 1 10.75 6.85 -0.08 0
647 1 11.05 6.85 -0.08 0
648 1 11.35 6.85 -0.08 0
649 1 -11.35 6.15 -0.08 0
650 1 -11.05 6.15 -0.08 0
651 1 -10.75 6.15 -0.08 0
652 1 -11.35 5.85 -0.08 0
653 1 -11.05 5.85 -0.08 0
654 1 -10.75 5.85 -0.08 0
655 1 -11.35 5.55 -0.08 0
656 1 -11.05 5.55 -0.08 0
657 1 -10.75 5.55 -0.08 0
658 1 -10.05 6.15 -0.08 0
659 1 -9.75 6.15 -0.08 0
660 1 -9.45 6.15 -0.08 0
661 1 -10.05 5.85 -0.08 0
662 1 -9.75 5.85 -0.08 0
663 1 -9.45 5.85 -0.08 0
664 1 -10.05 5.55 -0.08 0
665 1 -9.75 5.55 -0.08 0
666 1 -9.45 5.55 -0.08 0
667 6 -8.75 6.15 0 1
668 6 -8.45 6.15 0 1
669 6 -8.15 6.15 0 1
670 6 -8.75 5.85 0 1
671 6 -8.45 5.85 0 1
672 6 -8.15 5.85 0 1
673 6 -8.75 5.55 0 1
674 6 -8.45 5.55 0 1
675 6 -8.15 5.55 0 1
676 6 -7.45 6.15 0 1
677 6 -7.15 6.15 0 1
678 6 -6.85 6.15 0 1
679 6 -7.45 5.85 0 1
680 6 -7.15 5.85 0 1
681 6 -6.85 5.85 0 1
682 6 -7.45 5.55 0 1
683 6 -7.15 5.55 0 1
684 6 -6.85 5.55 0 1
685 6 -6.15 6.15 0 1
686 6 -5.85 6.15 0 1
687 6 -5.55 6.15 0 1
688 6 -6.15 5.85 0 1
689 6 -5.85 5.85 0 1
690 6 -5.55 5.85 0 1
691 6 -6.15 5.55 0 1
692 6 -5.85 5.55 0 1
693 6 -5.55 5.55 0 1
694 6 -4.85 6.15 0 1
695 6 -4.55 6.15 0 1
696 6 -4.25 6.15 0 1
697 6 -4.85 5.85 0 1
698 6 -4.55 5.85 0 1
699 6 -4.25 5.85 0 1
700 6 -4.85 5.55 0 1
701 6 -4.55 5.55 0 1
702 6 -4.25 5.55 0 1
703 1 -3.55 6.15 -0.08 0
704 1 -3.25 6.15 -0.08 0
705 1 -2.95 6.15 -0.08 0
706 1 -3.55 5.85 -0.08 0
707 1 -3.25 5.85 -0.08 0
708 1 -2.95 5.85 -0.08 0
709 1 -3.55 5.55 -0.08 0
710 1 -3.25 5.55 -0.08 0
711 1 -2.95 5.55 -0.08 0
712 1 -2.25 6.15 -0.08 0
713 1 -1.95 6.15 -0.08 0
714 1 -1.65 6.15 -0.08 0
715 1 -2.25 5.85 -0.08 0
716 1 -1.95 5.85 -0.08 0
717 1 -1.65 5.85 -0.08 0
718 1 -2.25 5.55 -0.08 0
719 1 -1.95 5.55 -0.08 0
720 1 -1.65 5.55 -0.08 0
721 1 -0.95 6.15 -0.08 0
722 1 -0.65 6.15 -0.08 0
723 1 -0.35 6.15 -0.08 0
724 1 -0.95 5.85 -0.08 0
725 1 -0.65 5.85 -0.08 0
726 1 -0.35 5.85 -0.08 0
727 1 -0.95 5.55 -0.08 0
728 1 -0.65 5.55 -0.08 0
729 1 -0.35 5.55 -0.08 0
730 1 0.35 6.15 -0.08 0
731 1 0.65 6.15 -0.08 0
732 1 0.95 6.15 -0.08 0
733 1 0.35 5.85 -0.08 0
734 1 0.65 5.85 -0.08 0
735 1 0.95 5.85 -0.08 0
736 1 0.35 5.55 -0.08 0
737 1 0.65 5.55 -0.08 0
738 1 0.95 5.55 -0.08 0
739 1 1.65 6.15 -0.08 0
740 1 1.95 6.15 -0.08 0
741 1 2.25 6.15 -0.08 0
742 1 1.65 5.85 -0.08 0
743 1 1.95 5.85 -0.08 0
744 1 2.25 5.85 -0.08 0
745 1 1.65 5.55 -0.08 0
746 1 1.95 5.55 -0.08 0
747 1 2.25 5.55 -0.08 0
748 1 2.95 6.15 -0.08 0
749 1 3.25 6.15 -0.08 0
750 1 3.55 6.15 -0.08 0
751 1 2.95 5.85 -0.08 0
752 1 3.25 5.85 -0.08 0
753 1 3.55 5.85 -0.08 0
754 1 2.95 5.55 -0.08 0
755 1 3.25 5.55 -0.08 0
756 1 3.55 5.55 -0.08 0
757 1 4.25 6.15 -0.08 0
758 1 4.55 6.15 -0.08 0
759 1 4.85 6.15 -0.08 0
760 1 4.25 5.85 -0.08 0
761 1 4.55 5.85 -0.08 0
762 1 4.85 5.85 -0.08 0
763 1 4.25 5.55 -0.08 0
764 1 4.55 5.55 -0.08 0
765 1 4.85 5.55 -0.08 0
766 1 5.55 6.15 -0.08 0
767 1 5.85 6.15 -0.08 0
768 1 6.15 6.15 -0.08 0
769 1 5.55 5.85 -0.08 0
770 1 5.85 5.85 -0.08 0
771 1 6.15 5.85 -0.08 0
772 1 5.55 5.55 -0.08 0
773 1 5.85 5.55 -0.08 0
774 1 6.15 5.55 -0.08 0
775 1 6.85 6.15 -0.08 0
776 1 7.15 6.15 -0.08 0
777 1 7.45 6.15 -0.08 0
778 1 6.85 5.85 -0.08 0
779 1 7.15 5.85 -0.08 0
780 1 7.45 5.85 -0.08 0
781 1 6.85 5.55 -0.08 0
782 1 7.15 5.55 -0.08 0
783 1 7.45 5.55 -0.08 0
784 1 8.15 6.15 -0.08 0
785 1 8.45 6.15 -0.08 0
786 1 8.75 6.15 -0.08 0
787 1 8.15 5.85 -0.08 0
788 1 8.45 5.85 -0.08 0
789 1 8.75 5.85 -0.08 0
790 1 8.15 5.55 -0.08 0
791 1 8.45 5.55 -0.08 0
792 1 8.75 5.55 -0.08 0
793 1 9.45 6.15 -0.08 0
794 1 9.75 6.15 -0.08 0
795 1 10.05 6.15 -0.08 0
796 1 9.45 5.85 -0.08 0
797 1 9.75 5.85 -0.08 0
798 1 10.05 5.85 -0.08 0
799 1 9.45 5.55 -0.08 0
800 1 9.75 5.55 -0.08 0
801 1 10.05 5.55 -0.08 0
802 1 10.75 6.15 -0.08 0
803 1 11.05 6.15 -0.08 0
804 1 11.35 6.15 -0.08 0
805 1 10.75 5.85 -0.08 0
806 1 11.05 5.85 -0.08 0
807 1 11.35 5.85 -0.08 0
808 1 10.75 5.55 -0.08 0
809 1 11.05 5.55 -0.08 0
810 1 11.35 5.55 -0.08 0
811 1 -11.35 4.85 -0.08 0
812 1 -11.05 4.85 -0.08 0
813 1 -10.75 4.85 -0.08 0
814 1 -11.35 4.55 -0.08 0
815 1 -11.05 4.55 -0.08 0
816 1 -10.75 4.55 -0.08 0
817 1 -11.35 4.25 -0.08 0
818 1 -11.05 4.25 -0.08 0
819 1 -10.75 4.25 -0.08 0
820 1 -10.05 4.85 -0.08 0
821 1 -9.75 4.85 -0.08 0
822 1 -9.45 4.85 -0.08 0
823 1 -10.05 4.55 -0.08 0
824 1 -9.75 4.55 -0.08 0
825 1 -9.45 4.55 -0.08 0
826 1 -10.05 4.25 -0.08 0
827 1 -9.75 4.25 -0.08 0
828 1 -9.45 4.25 -0.08 0
829 1 -8.75 4.85 -0.08 0
830 1 -8.45 4.85 -0.08 0
831 1 -8.15 4.85 -0.08 0
832 1 -8.75 4.55 -0.08 0
833 1 -8.45 4.55 -0.08 0
834 1 -8.15 4.55 -0.08 0
835 1 -8.75 4.25 -0.08 0
836 1 -8.45 4.25 -0.08 0
837 1 -8.15 4.25 -0.08 0
838 1 -7.45 4.85 -0.08 0
839 1 -7.15 4.85 -0.08 0
840 1 -6.85 4.85 -0.08 0
841 1 -7.45 4.55 -0.08 0
842 1 -7.15 4.55 -0.08 0
843 1 -6.85 4.55 -0.08 0
844 1 -7.45 4.25 -0.08 0
845 1 -7.15 4.25 -0.08 0
846 1 -6.85 4.25 -0.08 0
847 1 -6.15 4.85 -0.08 0
848 1 -5.85 4.85 -0.08 0
849 1 -5.55 4.85 -0.08 0
850 1 -6.15 4.55 -0.08 0
851 1 -5.85 4.55 -0.08 0
852 1 -5.55 4.55 -0.08 0
853 1 -6.15 4.25 -0.08 0
854 1 -5.85 4.25 -0.08 0
855 1 -5.55 4.25 -0.08 0
856 6 -4.85 4.85 0 1
857 6 -4.55 4.85 0 1
858 6 -4.25 4.85 0 1
859 6 -4.85 4.55 0 1
860 6 -4.55 4.55 0 1
861 6 -4.25 4.55 0 1
862 6 -4.85 4.25 0 1
863 6 -4.55 4.25 0 1
864 6 -4.25 4.25 0 1
865 1 -3.55 4.85 -0.08 0
866 1 -3.25 4.85 -0.08 0
867 1 -2.95 4.85 -0.08 0
868 1 -3.55 4.55 -0.08 0
869 1 -3.25 4.55 -0.08 0
870 1 -2.95 4.55 -0.08 0
871 1 -3.55 4.25 -0.08 0
872 1 -3.25 4.25 -0.08 0
873 1 -2.95 4.25 -0.08 0
874 1 -2.25 4.85 -0.08 0
875 1 -1.95 4.85 -0.08 0
876 1 -1.65 4.85 -0.08 0
877 1 -2.25 4.55 -0.08 0
878 1 -1.95 4.55 -0.08 0
879 1 -1.65 4.55 -0.08 0
880 1 -2.25 4.25 -0.08 0
881 1 -1.95 4.25 -0.08 0
882 1 -1.65 4.25 -0.08 0
883 1 -0.95 4.85 -0.08 0
884 1 -0.65 4.85 -0.08 0
885 1 -0.35 4.85 -0.08 0
886 1 -0.95 4.55 -0.08 0
887 1 -0.65 4.55 -0.08 0
888 1 -0.35 4.55 -0.08 0
889 1 -0.95 4.25 -0.08 0
890 1 -0.65 4.25 -0.08 0
891 1 -0.35 4.25 -0.08 0
892 1 0.35 4.85 -0.08 0
893 1 0.65 4.85 -0.08 0
894 1 0.95 4.85 -0.08 0
895 1 0.35 4.55 -0.08 0
896 1 0.65 4.55 -0.08 0
897 1 0.95 4.55 -0.08 0
898 1 0.35 4.25 -0.08 0
899 1 0.65 4.25 -0.08 0
900 1 0.95 4.25 -0.08 0
901 1 1.65 4.85 -0.08 0
902 1 1.95 4.85 -0.08 0
903 1 2.25 4.85 -0.08 0
904 1 1.65 4.55 -0.08 0
905 1 1.95 4.55 -0.08 0
906 1 2.25 4.55 -0.08 0
907 1 1.65 4.25 -0.08 0
908 1 1.95 4.25 -0.08 0
909 1 2.25 4.25 -0.08 0
910 1 2.95 4.85 -0.08 0
911 1 3.25 4.85 -0.08 0
912 1 3.55 4.85 -0.08 0
913 1 2.95 4.55 -0.08 0
914 1 3.25 4.55 -0.08 0
915 1 3.55 4.55 -0.08 0
916 1 2.95 4.25 -0.08 0
917 1 3.25 4.25 -0.08 0
918 1 3.55 4.25 -0.08 0
919 1 4.25 4.85 -0.08 0
920 1 4.55 4.85 -0.08 0
921 1 4.85 4.85 -0.08 0
922 1 4.25 4.55 -0.08 0
923 1 4.55 4.55 -0.08 0
924 1 4.85 4.55 -0.08 0
925 1 4.25 4.25 -0.08 0
926 1 4.55 4.25 -0.08 0
927 1 4.85 4.25 -0.08 0
928 1 5.55 4.85 -0.08 0
929 1 5.85 4.85 -0.08 0
930 1 6.15 4.85 -0.08 0
931 1 5.55 4.55 -0.08 0
932 1 5.85 4.55 -0.08 0
933 1 6.15 4.55 -0.08 0
934 1 5.55 4.25 -0.08 0
935 1 5.85 4.25 -0.08 0
936 1 6.15 4.25 -0.08 0
937 1 6.85 4.85 -0.08 0
938 1 7.15 4.85 -0.08 0
939 1 7.45 4.85 -0.08 0
940 1 6.85 4.55 -0.08 0
941 1 7.15 4.55 -0.08 0
942 1 7.45 4.55 -0.08 0
943 1 6.85 4.25 -0.08 0
944 1 7.15 4.25 -0.08 0
945 1 7.45 4.25 -0.08 0
946 1 8.15 4.85 -0.08 0
947 1 8.45 4.85 -0.08 0
948 1 8.75 4.85 -0.08 0
949 1 8.15 4.55 -0.08 0
950 1 8.45 4.55 -0.08 0
951 1 8.75 4.55 -0.08 0
952 1 8.15 4.25 -0.08 0
953 1 8.45 4.25 -0.08 0
954 1 8.75 4.25 -0.08 0
955 1 9.45 4.85 -0.08 0
956 1 9.75 4.85 -0.08 0
957 1 10.05 4.85 -0.08 0
958 1 9.45 4.55 -0.08 0
959 1 9.75 4.55 -0.08 0
960 1 10.05 4.55 -0.08 0
961 1 9.45 4.25 -0.08 0
962 1 9.75 4.25 -0.08 0
963 1 10.05 4.25 -0.08 0
964 1 10.75 4.85 -0.08 0
965 1 11.05 4.85 -0.08 0
966 1 11.35 4.85 -0.08 0
967 1 10.75 4.55 -0.08 0
968 1 11.05 4.55 -0.08 0
969 1 11.35 4.55 -0.08 0
970 1 10.75 4.25 -0.08 0
971 1 11.05 4.25 -0.08 0
972 1 11.35 4.25 -0.08 0
973 1 -11.35 3.55 -0.08 0
974 1 -11.05 3.55 -0.08 0
975 1 -10.75 3.55 -0.08 0
976 1 -11.35 3.25 -0.08 0
977 1 -11.05 3.25 -0.08 0
978 1 -10.75 3.25 -0.08 0
979 1 -11.35 2.95 -0.08 0
980 1 -11.05 2.95 -0.08 0
981 1 -10.75 2.95 -0.08 0
982 1 -10.05 3.55 -0.08 0
983 1 -9.75 3.55 -0.08 0
984 1 -9.45 3.55 -0.08 0
985 1 -10.05 3.25 -0.08 0
986 1 -9.75 3.25 -0.08 0
987 1 -9.45 3.25 -0.08 0
988 1 -10.05 2.95 -0.08 0
989 1 -9.75 2.95 -0.08 0
990 1 -9.45 2.95 -0.08 0
991 1 -8.75 3.55 -0.08 0
992 1 -8.45 3.55 -0.08 0
993 1 -8.15 3.55 -0.08 0
994 1 -8.75 3.25 -0.08 0
995 1 -8.45 3.25 -0.08 0
996 1 -8.15 3.25 -0.08 0
997 1 -8.75 2.95 -0.08 0
998 1 -8.45 2.95 -0.08 0
999 1 -8.15 2.95 -0.08 0
1000 1 -7.45 3.55 -0.08 0
1001 1 -7.15 3.55 -0.08 0
1002 1 -6.85 3.55 -0.08 0
1003 1 -7.45 3.25 -0.08 0
1004 1 -7.15 3.25 -0.08 0
1005 1 -6.85 3.25 -0.08 0
1006 1 -7.45 2.95 -0.08 0
1007 1 -7.15 2.95 -0.08 0
1008 1 -6.85 2.95 -0.08 0
1009 1 -6.15 3.55 -0.08 0
1010 1 -5.85 3.55 -0.08 0
1011 1 -5.55 3.55 -0.08 0
1012 1 -6.15 3.25 -0.08 0
1013 1 -5.85 3.25 -0.08 0
1014 1 -5.55 3.25 -0.08 0
1015 1 -6.15 2.95 -0.08 0
1016 1 -5.85 2.95 -0.08 0
1017 1 -5.55 2.95 -0.08 0
1018 1 -4.85 3.55 -0.08 0
1019 1 -4.55 3.55 -0.08 0
1020 1 -4.25 3.55 -0.08 0
1021 1 -4.85 3.25 -0.08 0
1022 1 -4.55 3.25 -0.08 0
1023 1 -4.25 3.25 -0.08 0
1024 1 -4.85 2.95 -0.08 0
1025 1 -4.55 2.95 -0.08 0
1026 1 -4.25 2.95 -0.08 0
1027 6 -3.55 3.55 0 1
1028 6 -3.25 3.55 0 1
1029 6 -2.95 3.55 0 1
1030 6 -3.55 3.25 0 1
1031 6 -3.25 3.25 0 1
1032 6 -2.95 3.25 0 1
1033 6 -3.55 2.95 0 1
1034 6 -3.25 2.95 0 1
1035 6 -2.95 2.95 0 1
1036 1 -2.25 3.55 -0.08 0
1037 1 -1.95 3.55 -0.08 0
1038 1 -1.65 3.55 -0.08 0
1039 1 -2.25 3.25 -0.08 0
1040 1 -1.95 3.25 -0.08 0
1041 1 -1.65 3.25 -0.08 0
1042 1 -2.25 2.95 -0.08 0
1043 1 -1.95 2.95 -0.08 0
1044 1 -1.65 2.95 -0.08 0
1045 1 -0.95 3.55 -0.08 0
1046 1 -0.65 3.55 -0.08 0
1047 1 -0.35 3.55 -0.08 0
1048 1 -0.95 3.25 -0.08 0
1049 1 -0.65 3.25 -0.08 0
1050 1 -0.35 3.25 -0.08 0
1051 1 -0.95 2.95 -0.08 0
1052 1 -0.65 2.95 -0.08 0
1053 1 -0.35 2.95 -0.08 0
1054 1 0.35 3.55 -0.08 0
1055 1 0.65 3.55 -0.08 0
1056 1 0.95 3.55 -0.08 0
1057 1 0.35 3.25 -0.08 0
1058 1 0.65 3.25 -0.08 0
1059 1 0.95 3.25 -0.08 0
1060 1 0.35 2.95 -0.08 0
1061 1 0.65 2.95 -0.08 0
1062 1 0.95 2.95 -0.08 0
1063 1 1.65 3.55 -0.08 0
1064 1 1.95 3.55 -0.08 0
1065 1 2.25 3.55 -0.08 0
1066 1 1.65 3.25 -0.08 0
1067 1 1.95 3.25 -0.08 0
1068 1 2.25 3.25 -0.08 0
1069 1 1.65 2.95 -0.08 0
1070 1 1.95 2.95 -0.08 0
1071 1 2.25 2.95 -0.08 0
1072 1 2.95 3.55 -0.08 0
1073 1 3.25 3.55 -0.08 0
1074 1 3.55 3.55 -0.08 0
1075 1 2.95 3.25 -0.08 0
1076 1 3.25 3.25 -0.08 0
1077 1 3.55 3.25 -0.08 0
1078 1 2.95 2.95 -0.08 0
1079 1 3.25 2.95 -0.08 0
1080 1 3.55 2.95 -0.08 0
1081 1 4.25 3.55 -0.08 0
1082 1 4.55 3.55 -0.08 0
1083 1 4.85 3.55 -0.08 0
1084 1 4.25 3.25 -0.08 0
1085 1 4.55 3.25 -0.08 0
1086 1 4.85 3.25 -0.08 0
1087 1 4.25 2.95 -0.08 0
1088 1 4.55 2.95 -0.08 0
1089 1 4.85 2.95 -0.08 0
1090 1 5.55 3.55 -0.08 0
1091 1 5.85 3.55 -0.08 0
1092 1 6.15 3.55 -0.08 0
1093 1 5.55 3.25 -0.08 0
1094 1 5.85 3.25 -0.08 0
1095 1 6.15 3.25 -0.08 0
1096 1 5.55 2.95 -0.08 0
1097 1 5.85 2.95 -0.08 0
1098 1 6.15 2.95 -0.08 0
1099 1 6.85 3.55 -0.08 0
1100 1 7.15 3.55 -0.08 0
1101 1 7.45 3.55 -0.08 0
1102 1 6.85 3.25 -0.08 0
1103 1 7.15 3.25 -0.08 0
1104 1 7.45 3.25 -0.08 0
1105 1 6.85 2.95 -0.08 0
1106 1 7.15 2.95 -0.08 0
1107 1 7.45 2.95 -0.08 0
1108 1 8.15 3.55 -0.08 0
1109 1 8.45 3.55 -0.08 0
1110 1 8.75 3.55 -0.08 0
1111 1 8.15 3.25 -0.08 0
1112 1 8.45 3.25 -0.08 0
1113 1 8.75 3.25 -0.08 0
1114 1 8.15 2.95 -0.08 0
1115 1 8.45 2.95 -0.08 0
1116 1 8.75 2.95 -0.08 0
1117 1 9.45 3.55 -0.08 0
1118 1 9.75 3.55 -0.08 0
1119 1 10.05 3.55 -0.08 0
1120 1 9.45 3.25 -0.08 0
1121 1 9.75 3.25 -0.08 0
1122 1 10.05 3.25 -0.08 0
1123 1 9.45 2.95 -0.08 0
1124 1 9.75 2.95 -0.08 0
1125 1 10.05 2.95 -0.08 0
1126 1 10.75 3.55 -0.08 0
1127 1 11.05 3.55 -0.08 0
1128 1 11.35 3.55 -0.08 0
1129 1 10.75 3.25 -0.08 0
1130 1 11.05 3.25 -0.08 0
1131 1 11.35 3.25 -0.08 0
1132 1 10.75 2.95 -0.08 0
1133 1 11.05 2.95 -0.08 0
1134 1 11.35 2.95 -0.08 0
1135 1 -11.35 2.25 -0.08 0
1136 1 -11.05 2.25 -0.08 0
1137 1 -10.75 2.25 -0.08 0
1138 1 -11.35 1.95 -0.08 0
1139 1 -11.05 1.95 -0.08 0
1140 1 -10.75 1.95 -0.08 0
1141 1 -11.35 1.65 -0.08 0
1142 1 -11.05 1.65 -0.08 0
1143 1 -10.75 1.65 -0.08 0
1144 1 -10.05 2.25 -0.08 0
1145 1 -9.75 2.25 -0.08 0
1146 1 -9.45 2.25 -0.08 0
1147 1 -10.05 1.95 -0.08 0
1148 1 -9.75 1.95 -0.08 0
1149 1 -9.45 1.95 -0.08 0
1150 1 -10.05 1.65 -0.08 0
1151 1 -9.75 1.65 -0.08 0
1152 1 -9.45 1.65 -0.08 0
1153 1 -8.75 2.25 -0.08 0
1154 1 -8.45 2.25 -0.08 0
1155 1 -8.15 2.25 -0.08 0
1156 1 -8.75 1.95 -0.08 0
1157 1 -8.45 1.95 -0.08 0
1158 1 -8.15 1.95 -0.08 0
1159 1 -8.75 1.65 -0.08 0
1160 1 -8.45 1.65 -0.08 0
1161 1 -8.15 1.65 -0.08 0
1162 1 -7.45 2.25 -0.08 0
1163 1 -7.15 2.25 -0.08 0
1164 1 -6.85 2.25 -0.08 0
1165 1 -7.45 1.95 -0.08 0
1166 1 -7.15 1.95 -0.08 0
1167 1 -6.85 1.95 -0.08 0
1168 1 -7.45 1.65 -0.08 0
1169 1 -7.15 1.65 -0.08 0
1170 1 -6.85 1.65 -0.08 0
1171 1 -6.15 2.25 -0.08 0
1172 1 -5.85 2.25 -0.08 0
1173 1 -5.55 2.25 -0.08 0
1174 1 -6.15 1.95 -0.08 0
1175 1 -5.85 1.95 -0.08 0
1176 1 -5.55 1.95 -0.08 0
1177 1 -6.15 1.65 -0.08 0
1178 1 -5.85 1.65 -0.08 0
1179 1 -5.55 1.65 -0.08 0
1180 1 -4.85 2.25 -0.08 0
1181 1 -4.55 2.25 -0.08 0
1182 1 -4.25 2.25 -0.08 0
1183 1 -4.85 1.95 -0.08 0
1184 1 -4.55 1.95 -0.08 0
1185 1 -4.25 1.95 -0.08 0
1186 1 -4.85 1.65 -0.08 0
1187 1 -4.55 1.65 -0.08 0
1188 1 -4.25 1.65 -0.08 0
1189 1 -3.55 2.25 -0.08 0
1190 1 -3.25 2.25 -0.08 0
1191 1 -2.95 2.25 -0.08 0
1192 1 -3.55 1.95 -0.08 0
1193 1 -3.25 1.95 -0.08 0
1194 1 -2.95 1.95 -0.08 0
1195 1 -3.55 1.65 -0.08 0
1196 1 -3.25 1.65 -0.08 0
1197 1 -2.95 1.65 -0.08 0
1198 6 -2.25 2.25 0 1
1199 6 -1.95 2.25 0 1
1200 6 -1.65 2.25 0 1
1201 6 -2.25 1.95 0 1
1202 6 -1.95 1.95 0 1
1203 6 -1.65 1.95 0 1
1204 6 -2.25 1.65 0 1
1205 6 -1.95 1.65 0 1
1206 6 -1.65 1.65 0 1
1207 1 -0.95 2.25 -0.08 0
1208 1 -0.65 2.25 -0.08 0
1209 1 -0.35 2.25 -0.08 0
1210 1 -0.95 1.95 -0.08 0
1211 1 -0.65 1.95 -0.08 0
1212 1 -0.35 1.95 -0.08 0
1213 1 -0.95 1.65 -0.08 0
1214 1 -0.65 1.65 -0.08 0
1215 1 -0.35 1.65 -0.08 0
1216 1 0.35 2.25 -0.08 0
1217 1 0.65 2.25 -0.08 0