ITEM: TIMESTEP
0
ITEM: NUMBER OF ATOMS
658
ITEM: BOX BOUNDS pp pp pp
-33.948499 36.051501
-38.183369 30.610246
-29.706783 27.056101
ITEM: ATOMS id type x y z sphere_id kind radius
1 27 5.917575 -12.990251 15.107714 0 0 1.500
2 27 16.583203 -14.678930 1.655746 0 0 1.500
3 27 11.924501 -9.999895 5.422886 0 1 1.200
4 27 15.298504 -13.655739 16.435747 0 1 1.200
5 27 16.855895 -13.648322 12.085424 0 1 1.200
6 27 10.742304 -12.789455 5.676094 0 1 1.200
7 27 20.335232 -11.380763 8.611455 0 1 1.200
8 27 8.499621 -9.911887 10.044853 0 1 1.200
9 27 13.140974 -10.536134 7.940805 0 1 1.200
10 27 14.271401 -8.052326 6.882178 0 1 1.200
11 27 11.946719 -10.879992 16.843958 0 1 1.200
12 27 12.395071 -13.748863 16.504984 0 1 1.200
13 27 8.504435 -11.319787 13.084763 0 1 1.200
14 27 14.031449 -11.754947 14.421890 0 1 1.200
15 27 19.160512 -8.957889 8.329178 0 1 1.200
16 27 11.711182 -14.921206 11.029905 0 1 1.200
17 27 10.539909 -17.308747 12.234229 0 1 1.200
18 27 16.567702 -17.553274 10.772823 0 1 1.200
19 27 8.183246 -12.778556 10.728235 0 1 1.200
20 27 11.283035 -7.144877 14.444990 0 1 1.200
21 27 14.077575 -13.581740 7.237335 0 1 1.200
22 27 16.473362 -12.691667 4.918962 0 1 1.200
23 27 15.989121 -6.185735 11.312461 0 1 1.200
24 27 16.950092 -13.814128 8.738976 0 1 1.200
25 27 14.952910 -8.851832 10.646537 0 1 1.200
26 27 8.877652 -15.672593 9.996855 0 1 1.200
27 27 11.292599 -12.379913 13.027958 0 1 1.200
28 27 11.120455 -8.152345 8.151158 0 1 1.200
29 27 16.112844 -16.863883 13.407295 0 1 1.200
30 27 10.012632 -9.736510 15.346137 0 1 1.200
31 27 17.535603 -11.656543 15.660088 0 2 1.100
32 27 16.224060 -10.049903 13.166786 0 2 1.100
33 27 14.877418 -6.635065 14.446040 0 2 1.100
34 27 17.485397 -9.432571 5.949984 0 2 1.100
35 27 13.894280 -16.249028 15.327317 0 2 1.100
36 27 20.437220 -10.269320 11.439119 0 2 1.100
37 27 13.432595 -6.721290 9.404132 0 2 1.100
38 27 18.622217 -16.286965 9.276613 0 2 1.100
39 27 9.199964 -8.624203 12.778246 0 2 1.100
40 27 18.987678 -11.969739 5.972706 0 2 1.100
41 27 16.528282 -8.662310 15.863805 0 2 1.100
42 27 14.884331 -10.722684 17.056101 0 2 1.100
43 27 17.749050 -10.981740 10.601984 0 2 1.100
44 27 13.925573 -14.622421 13.103748 0 2 1.100
45 27 9.620921 -10.515284 7.452548 0 2 1.100
46 27 16.280056 -11.015362 7.927449 0 2 1.100
47 27 13.490831 -12.597610 4.286647 0 2 1.100
48 27 14.493528 -15.542533 9.626425 0 2 1.100
49 27 17.642043 -7.192695 13.465206 0 2 1.100
50 27 11.265044 -13.022496 8.883140 0 2 1.100
51 27 12.946027 -9.273952 13.199589 0 2 1.100
52 27 19.134756 -9.665306 13.981835 0 2 1.100
53 27 18.005033 -15.111120 6.056371 0 2 1.100
54 27 19.900849 -14.093427 7.973404 0 2 1.100
55 27 20.141354 -13.448505 10.865633 0 2 1.100
56 27 19.446129 -12.619574 13.567519 0 2 1.100
57 27 16.636972 -7.480855 8.529353 0 2 1.100
58 27 8.597324 -13.273584 7.954583 0 2 1.100
59 27 13.254955 -8.265876 16.244053 0 2 1.100
60 27 10.788654 -7.229911 10.929339 0 2 1.100
61 27 8.881387 -14.688880 12.914428 0 2 1.100
62 27 13.371379 -17.778240 12.527311 0 2 1.100
63 27 9.842423 -12.904809 15.518723 0 2 1.100
64 27 12.412768 -15.197965 5.210719 0 2 1.100
65 27 13.365008 -17.292846 7.047851 0 2 1.100
66 27 11.276362 -10.237934 10.768807 0 2 1.100
67 27 17.408535 -14.608126 14.864662 0 2 1.100
68 27 10.550563 -15.676566 7.320860 0 2 1.100
69 27 11.019385 -15.741190 14.662665 0 2 1.100
70 27 13.123840 -6.134914 12.343054 0 2 1.100
71 27 16.383027 -17.345799 7.573411 0 2 1.100
72 27 18.715413 -7.809668 10.926794 0 2 1.100
73 27 14.056955 -18.457558 9.755796 0 2 1.100
74 27 18.804571 -15.713808 12.210863 0 2 1.100
75 27 14.932487 -10.204041 4.876339 0 2 1.100
76 27 11.341255 -17.568418 9.315077 0 2 1.100
77 27 15.306793 -15.644015 5.345756 0 2 1.100
78 27 14.460937 -12.008231 10.963936 0 3 2.400
79 27 13.933688 -12.312000 10.537224 0 4 2.800
80 24 14.080801 6.541341 7.646984 1 0 1.500
81 24 22.122514 5.062061 -10.021792 1 0 1.500
82 24 24.784912 11.237519 -3.457805 1 1 1.200
83 24 23.522307 5.566827 0.138579 1 1 1.200
84 24 25.687604 7.204874 -0.955634 1 1 1.200
85 24 24.998101 7.355558 2.072107 1 1 1.200
86 24 12.246844 9.500778 -9.283048 1 1 1.200
87 24 13.490033 9.670272 5.058212 1 1 1.200
88 24 14.150357 11.446687 -11.130257 1 1 1.200
89 24 13.375099 4.440231 -9.869524 1 1 1.200
90 24 22.783540 0.536792 -6.924177 1 1 1.200
91 24 19.839448 10.680679 3.831739 1 1 1.200
92 24 16.382359 9.743284 -7.778188 1 1 1.200
93 24 15.830583 10.280241 6.730315 1 1 1.200
94 24 19.038393 10.241428 6.656802 1 1 1.200
95 24 12.508752 6.902504 -8.085891 1 1 1.200
96 24 25.477712 3.638891 -4.867698 1 1 1.200
97 24 14.472750 9.273660 0.531359 1 1 1.200
98 24 21.727562 11.093109 6.012107 1 1 1.200
99 24 16.895874 10.059985 -12.234695 1 1 1.200
100 24 15.232245 7.839804 -3.806944 1 1 1.200
101 24 17.626892 3.771352 0.638358 1 1 1.200
102 24 15.503556 7.982540 -9.679007 1 1 1.200
103 24 14.845085 3.366887 0.384003 1 1 1.200
104 24 15.017677 6.002563 -12.516904 1 1 1.200
105 24 17.683331 2.913279 -5.825804 1 1 1.200
106 24 20.949127 8.741738 -0.243935 1 1 1.200
107 24 14.550951 -0.282524 -3.240610 1 1 1.200
108 24 12.438497 6.896795 -10.981939 1 1 1.200
109 24 24.891202 4.559237 2.379086 1 1 1.200
110 24 18.071399 -1.168302 -4.065858 1 1 1.200
111 24 12.862294 7.798396 -0.780434 1 1 1.200
112 24 12.201831 5.090668 -1.802509 1 1 1.200
113 24 11.725082 10.030809 -2.670091 1 1 1.200
114 24 11.939365 5.542752 0.978203 1 1 1.200
115 24 11.224903 7.157603 -3.249136 1 1 1.200
116 24 11.975674 8.119344 2.069824 1 1 1.200
117 24 22.565148 11.156665 -8.417357 1 1 1.200
118 24 20.857229 -0.896756 -0.675499 1 1 1.200
119 24 21.970052 15.183412 0.174007 1 1 1.200
120 24 22.832889 10.588387 3.690042 1 1 1.200
121 24 19.753512 7.161885 3.239154 1 1 1.200
122 24 21.353212 11.012082 0.453207 1 1 1.200
123 24 12.185590 3.498903 -5.677997 1 1 1.200
124 24 17.629683 5.369884 -10.052331 1 1 1.200
125 24 24.254294 2.477898 0.438073 1 1 1.200
126 24 14.696315 -0.459799 -6.059719 1 1 1.200
127 24 14.195173 0.795445 0.243444 1 1 1.200
128 24 13.219682 12.997784 3.225535 1 1 1.200
129 24 20.001782 4.525590 -0.414527 1 1 1.200
130 24 16.308426 6.802002 1.700206 1 1 1.200
131 24 17.997486 10.299228 -0.964325 1 1 1.200
132 24 17.505821 17.085919 -1.478221 1 1 1.200
133 24 17.669781 7.264794 -12.303251 1 1 1.200
134 24 23.830894 12.991171 -5.901011 1 1 1.200
135 24 19.404128 0.969908 -2.424712 1 1 1.200
136 24 14.249669 2.227306 -4.481171 1 1 1.200
137 24 12.942144 1.272163 -7.234455 1 1 1.200
138 24 21.254014 14.430821 -5.503042 1 1 1.200
139 24 21.712489 3.583778 3.744694 1 1 1.200
140 24 14.659363 11.721996 -4.489410 1 1 1.200
141 24 24.437726 9.517219 -6.470236 1 1 1.200
142 24 14.272828 14.768054 -5.995249 1 1 1.200
143 24 20.585171 12.939179 -7.815614 1 1 1.200
144 24 19.103103 13.014092 5.955376 1 1 1.200
145 24 14.158497 14.613495 0.085651 1 1 1.200
146 24 18.245144 7.496873 -8.342887 1 1 1.200
147 24 20.170594 7.105893 7.351609 1 1 1.200
148 24 15.842333 14.506522 4.513234 1 1 1.200
149 24 15.832565 3.748327 -11.242572 1 1 1.200
150 24 21.879378 12.858610 -3.193820 1 1 1.200
151 24 14.070418 11.405971 -8.545765 1 1 1.200
152 24 21.944576 11.052990 -5.215641 1 1 1.200
153 24 22.401373 6.791103 5.082627 1 1 1.200
154 24 17.997441 0.137070 -7.284842 1 1 1.200
155 24 16.749238 3.661808 5.125505 1 1 1.200
156 24 15.389536 11.190847 3.734041 1 1 1.200
157 24 16.529650 12.913861 2.342343 1 1 1.200
158 24 18.244688 4.638672 7.474528 1 1 1.200
159 24 18.935085 9.634912 -10.391159 1 1 1.200
160 24 15.053373 12.184095 -1.261355 1 1 1.200
161 24 17.713081 11.689537 -4.727089 1 1 1.200
162 24 19.419330 5.308317 4.707479 1 1 1.200
163 24 17.777417 -0.812257 -1.159802 1 1 1.200
164 24 14.163909 8.817404 -12.315027 1 1 1.200
165 24 17.326095 6.946224 6.099164 1 1 1.200
166 24 19.383166 2.249735 4.719648 1 1 1.200
167 24 23.086790 8.968697 -3.921985 1 1 1.200
168 24 16.433730 1.723305 -8.466208 1 1 1.200
169 24 21.562717 4.297861 6.458247 1 1 1.200
170 24 15.324013 5.850809 -7.789871 1 1 1.200
171 24 17.331218 14.187690 -7.436532 1 1 1.200
172 24 20.789092 -1.092605 -4.027332 1 1 1.200
173 24 20.669016 5.984823 -3.099000 1 1 1.200
174 24 17.970155 5.898197 -4.524989 1 2 1.100
175 24 16.240723 4.572056 -2.334129 1 2 1.100
176 24 19.698943 13.323135 3.324037 1 2 1.100
177 24 13.254454 14.319897 -2.380600 1 2 1.100
178 24 17.660510 14.331271 -4.845856 1 2 1.100
179 24 12.353953 12.859079 -5.724349 1 2 1.100
180 24 11.811607 10.647758 0.071727 1 2 1.100
181 24 20.841305 9.255747 -6.540096 1 2 1.100
182 24 22.186484 1.024641 -2.580920 1 2 1.100
183 24 13.640279 2.555689 2.684344 1 2 1.100
184 24 12.123837 1.341392 -3.270586 1 2 1.100
185 24 16.922437 12.003644 -10.102432 1 2 1.100
186 24 14.517985 12.580874 6.193685 1 2 1.100
187 24 25.412674 4.298854 -1.289608 1 2 1.100
188 24 23.717345 9.618931 0.140733 1 2 1.100
189 24 18.496953 12.814964 -1.059145 1 2 1.100
190 24 22.217380 5.182344 -4.727761 1 2 1.100
191 24 14.646379 6.102648 3.810201 1 2 1.100
192 24 13.296893 8.496971 -5.348992 1 2 1.100
193 24 21.091415 2.242910 0.708257 1 2 1.100
194 24 19.764560 2.993122 -6.980961 1 2 1.100
195 24 17.620563 1.234242 1.842270 1 2 1.100
196 24 16.611714 17.141425 0.929882 1 2 1.100
197 24 22.196658 14.884036 2.521275 1 2 1.100
198 24 21.089778 -0.358952 -8.315807 1 2 1.100
199 24 23.795621 4.675642 -8.389052 1 2 1.100
200 24 26.051501 5.953745 -4.884619 1 2 1.100
201 24 21.083829 6.014539 -11.930658 1 2 1.100
202 24 22.985083 7.477744 -9.748270 1 2 1.100
203 24 20.796903 2.852357 -10.645159 1 2 1.100
204 24 15.341584 17.382337 -2.846450 1 2 1.100
205 24 24.011814 13.716871 -0.157157 1 2 1.100
206 24 18.505251 17.318674 -3.826280 1 2 1.100
207 24 24.312917 1.624700 -5.419018 1 5 1.700
208 24 19.834641 16.384045 -0.489644 1 6 1.700
209 24 17.510965 7.014815 -1.470231 1 7 1.800
210 24 18.161495 7.685798 -2.574538 1 4 2.800
211 29 -19.705233 -17.213650 -6.481843 2 1 1.200
212 29 -15.391570 -18.366856 8.480595 2 1 1.200
213 29 -20.723731 -17.583748 3.483626 2 1 1.200
214 29 -13.706132 -11.418373 -0.845576 2 1 1.200
215 29 -21.458620 -10.450756 -0.541897 2 1 1.200
216 29 -20.391969 -19.946938 2.860799 2 1 1.200
217 29 -21.938919 -16.914284 -4.307196 2 1 1.200
218 29 -13.965286 -14.984414 3.697505 2 1 1.200
219 29 -14.976273 -12.216175 -5.428870 2 1 1.200
220 29 -16.887298 -10.934470 6.138837 2 1 1.200
221 29 -18.712632 -16.559405 -3.808283 2 1 1.200
222 29 -14.522900 -16.945950 5.776562 2 1 1.200
223 29 -15.248392 -13.315195 -1.849407 2 2 1.100
224 29 -20.088711 -13.420294 7.624994 2 2 1.100
225 29 -11.124099 -16.732293 0.118512 2 2 1.100
226 29 -22.788442 -10.110637 3.455704 2 2 1.100
227 29 -11.501483 -12.963072 -3.108531 2 2 1.100
228 29 -20.711090 -16.108129 6.304223 2 2 1.100
229 29 -23.302131 -15.264875 1.534887 2 2 1.100
230 29 -23.948499 -12.659105 3.995042 2 2 1.100
231 29 -22.954544 -12.581832 1.340465 2 2 1.100
232 29 -21.581365 -10.812241 6.259431 2 2 1.100
233 29 -19.176236 -11.864324 1.779869 2 2 1.100
234 29 -11.966402 -13.102108 0.885133 2 2 1.100
235 29 -22.626234 -13.588597 6.597298 2 2 1.100
236 29 -21.995775 -14.542939 -2.894534 2 2 1.100
237 29 -11.239879 -16.220332 3.837160 2 2 1.100
238 29 -19.481212 -12.596675 -4.831575 2 2 1.100
239 29 -12.603489 -14.982192 8.529824 2 2 1.100
240 29 -14.620820 -13.591807 -7.823668 2 2 1.100
241 29 -17.330326 -8.807176 4.505923 2 2 1.100
242 29 -16.548196 -10.048117 -4.582020 2 2 1.100
243 29 -17.496577 -11.884546 9.096458 2 2 1.100
244 29 -16.871346 -11.111849 -7.374281 2 2 1.100
245 29 -18.500342 -9.395599 7.608410 2 2 1.100
246 29 -11.635373 -17.075960 -2.983374 2 2 1.100
247 29 -20.160311 -10.038608 3.644183 2 2 1.100
248 29 -23.143587 -8.713917 -0.259136 2 2 1.100
249 29 -20.961557 -9.425789 -3.319561 2 2 1.100
250 29 -15.618597 -18.288878 -4.294085 2 2 1.100
251 29 -17.435986 -19.108633 6.168579 2 2 1.100
252 29 -16.543737 -17.055941 -6.788289 2 2 1.100
253 29 -11.729145 -13.770763 5.628458 2 2 1.100
254 29 -21.312931 -17.091524 -1.349523 2 2 1.100
255 29 -15.299793 -15.429195 9.345781 2 2 1.100
256 29 -15.486842 -9.778458 -0.526508 2 2 1.100
257 29 -18.684716 -14.557962 -7.219864 2 2 1.100
258 29 -16.272998 -20.225945 3.507982 2 2 1.100
259 29 -16.801028 -20.111139 -2.076801 2 2 1.100
260 29 -11.821084 -18.937550 4.570034 2 2 1.100
261 29 -21.378330 -14.215682 -5.818214 2 2 1.100
262 29 -17.405688 -16.557946 7.651087 2 2 1.100
263 29 -17.510210 -17.077219 -1.383348 2 2 1.100
264 29 -12.630151 -18.343772 7.668499 2 2 1.100
265 29 -19.111356 -19.327948 -0.660467 2 2 1.100
266 29 -16.315728 -17.310365 3.689889 2 2 1.100
267 29 -13.300975 -18.786966 -1.409969 2 2 1.100
268 29 -18.395292 -13.840570 4.735400 2 2 1.100
269 29 -19.557395 -8.711309 -0.623194 2 2 1.100
270 29 -14.108045 -16.324891 -0.003665 2 2 1.100
271 29 -23.028551 -15.748216 4.343226 2 2 1.100
272 29 -12.735739 -15.585503 -4.969364 2 2 1.100
273 29 -20.321761 -15.047763 1.964141 2 2 1.100
274 29 -23.412340 -11.138328 -2.434878 2 2 1.100
275 29 -20.430984 -19.288879 -3.118625 2 2 1.100
276 29 -13.752432 -19.331056 2.712262 2 2 1.100
277 29 -10.248879 -14.234849 -0.853653 2 2 1.100
278 29 -12.891735 -11.517021 -6.067564 2 2 1.100
279 29 -15.420634 -10.819063 3.497125 2 2 1.100
280 29 -18.052209 -19.496854 -4.894830 2 2 1.100
281 29 -14.406916 -20.239321 5.773052 2 2 1.100
282 29 -16.913141 -14.879934 -4.601278 2 2 1.100
283 29 -10.890608 -16.392772 6.598899 2 2 1.100
284 29 -19.058804 -13.946986 -2.239540 2 2 1.100
285 29 -14.884423 -14.366696 6.533989 2 2 1.100
286 29 -13.825329 -10.659052 5.761416 2 2 1.100
287 29 -14.925025 -10.947480 8.420709 2 2 1.100
288 29 -13.277049 -14.880951 -2.060078 2 3 2.400
289 29 -20.751543 -13.327213 4.033446 2 3 2.400
290 29 -17.177931 -14.565251 1.093587 2 4 2.800
291 28 3.706623 -24.622549 -5.895639 3 1 1.200
292 28 2.358364 -24.467368 -0.135040 3 1 1.200
293 28 -1.265862 -23.018210 -0.809332 3 1 1.200
294 28 -1.893912 -26.121880 -3.482703 3 1 1.200
295 28 2.712261 -26.645322 -2.214743 3 1 1.200
296 28 0.396390 -18.980310 -1.661673 3 1 1.200
297 28 2.992138 -22.418746 -6.255122 3 1 1.200
298 28 3.498279 -24.962377 -8.874183 3 1 1.200
299 28 5.800901 -23.326857 -4.346976 3 1 1.200
300 28 5.009957 -26.428055 -4.945714 3 1 1.200
301 28 -2.920960 -24.048092 0.849523 3 1 1.200
302 28 2.062498 -16.740718 -7.828972 3 1 1.200
303 28 -2.166370 -21.080742 -12.933487 3 1 1.200
304 28 2.345549 -26.817179 -6.840930 3 1 1.200
305 28 1.264456 -25.017015 1.684908 3 1 1.200
306 28 5.617829 -23.409936 -7.695614 3 1 1.200
307 28 2.925388 -18.550688 -6.493299 3 1 1.200
308 28 -4.692662 -21.237003 -11.011025 3 1 1.200
309 28 -0.788269 -21.854748 1.400421 3 1 1.200
310 28 0.313119 -18.435303 -11.153853 3 1 1.200
311 28 3.927502 -19.598350 -8.723270 3 1 1.200
312 28 -3.532322 -21.770896 -1.651975 3 1 1.200
313 28 -1.924079 -20.292080 -10.306396 3 1 1.200
314 28 -4.496048 -23.895472 -8.218362 3 1 1.200
315 28 0.736244 -18.366552 -4.288286 3 8 2.000
316 28 0.497630 -24.669277 -11.040740 3 2 1.100
317 28 -1.242202 -26.412035 -9.281272 3 2 1.100
318 28 -3.267579 -24.888623 -11.578102 3 2 1.100
319 28 5.158710 -19.323093 -5.517748 3 2 1.100
320 28 -2.802290 -18.059003 -11.735123 3 2 1.100
321 28 -4.572858 -19.016579 -9.030126 3 2 1.100
322 28 -5.638199 -25.803523 -7.792148 3 2 1.100
323 28 3.432034 -22.692028 -2.087314 3 2 1.100
324 28 -4.050661 -27.381225 -4.577144 3 2 1.100
325 28 -1.799275 -27.137046 -1.035020 3 2 1.100
326 28 -2.789495 -20.567719 -7.541978 3 2 1.100
327 28 -1.750850 -17.621706 -8.777038 3 2 1.100
328 28 -1.771376 -18.741728 -0.820437 3 2 1.100
329 28 2.045294 -19.911707 -0.108457 3 2 1.100
330 28 0.445855 -21.119693 -9.176246 3 2 1.100
331 28 3.021842 -18.238258 -3.142357 3 2 1.100
332 28 -0.199322 -28.183369 -3.649786 3 2 1.100
333 28 -4.581854 -25.551959 -2.260688 3 2 1.100
334 28 -0.564881 -16.459065 -5.155158 3 2 1.100
335 28 -1.393756 -27.031879 -6.033883 3 2 1.100
336 28 0.742681 -21.345773 -12.049272 3 2 1.100
337 28 -3.255999 -23.925711 -4.367882 3 2 1.100
338 28 -2.051965 -18.959924 -4.409060 3 2 1.100
339 28 -5.958279 -22.594191 -6.593724 3 2 1.100
340 28 1.330107 -24.489427 -2.651630 3 9 3.000
341 28 -1.958409 -23.912317 -9.871783 3 3 2.400
342 28 -0.225366 -22.472496 -5.722791 3 4 2.800
343 30 11.488487 -15.376125 -11.551345 4 1 1.200
344 30 11.100583 -11.128242 -17.038648 4 1 1.200
345 30 13.051482 -14.753879 -13.723947 4 1 1.200
346 30 10.460634 -17.491330 -15.564090 4 1 1.200
347 30 10.053421 -13.992383 -19.706783 4 2 1.100
348 30 9.518990 -16.965057 -18.447413 4 2 1.100
349 30 12.420125 -15.432074 -18.222433 4 2 1.100
350 30 6.928073 -12.479754 -16.084086 4 2 1.100
351 30 8.709894 -12.882734 -13.739115 4 2 1.100
352 30 7.487673 -12.965449 -18.863138 4 2 1.100
353 30 10.530460 -9.889334 -14.808093 4 2 1.100
354 30 11.918464 -18.858614 -14.389248 4 2 1.100
355 30 9.315485 -9.720316 -18.156647 4 2 1.100
356 30 14.787913 -16.197567 -15.377755 4 2 1.100
357 30 15.365277 -13.386523 -14.320996 4 2 1.100
358 30 8.064983 -15.764409 -14.393045 4 2 1.100
359 30 13.622568 -10.631999 -16.232175 4 2 1.100
360 30 6.851164 -15.679588 -17.438938 4 2 1.100
361 30 12.679607 -11.343882 -19.073061 4 2 1.100
362 30 14.437559 -16.284289 -12.092467 4 2 1.100
363 30 13.003568 -12.618372 -12.083307 4 2 1.100
364 30 9.389051 -14.512481 -16.729738 4 3 2.400
365 30 11.092352 -13.971241 -15.746093 4 4 2.800
366 26 -7.845435 12.808858 -8.859958 5 1 1.200
367 26 -6.906583 -1.017437 6.859802 5 1 1.200
368 26 -12.315812 8.273726 -8.441666 5 1 1.200
369 26 -7.150803 8.427203 -5.996128 5 1 1.200
370 26 -11.026850 2.812805 12.024240 5 1 1.200
371 26 -11.027694 1.723736 9.753005 5 1 1.200
372 26 -7.355494 -2.679457 -2.876368 5 1 1.200
373 26 -7.092195 5.688479 13.376376 5 1 1.200
374 26 -14.194129 15.365869 -5.362451 5 1 1.200
375 26 -6.571147 6.411438 10.643104 5 1 1.200
376 26 -6.325965 4.623696 -12.109581 5 1 1.200
377 26 -4.186644 12.933302 11.987730 5 1 1.200
378 26 -6.815280 9.522626 -8.597389 5 1 1.200
379 26 -17.011659 5.662984 8.920376 5 1 1.200
380 26 -2.371033 7.488358 7.821204 5 1 1.200
381 26 -7.879187 18.983908 -5.779820 5 1 1.200
382 26 -9.007671 17.654912 5.497037 5 1 1.200
383 26 -2.680827 9.853586 12.916753 5 1 1.200
384 26 -5.541784 8.053705 7.930815 5 1 1.200
385 26 -9.628222 15.111240 9.997298 5 1 1.200
386 26 -15.445689 7.749618 0.293788 5 1 1.200
387 26 0.314836 4.580598 -3.095636 5 1 1.200
388 26 -2.709777 14.150030 -9.467307 5 1 1.200
389 26 -5.274767 4.091927 12.114381 5 1 1.200
390 26 -5.848839 -0.081754 -2.674135 5 1 1.200
391 26 -0.299942 7.146585 9.864910 5 1 1.200
392 26 -1.800713 6.891277 12.297226 5 1 1.200
393 26 -4.312476 7.111239 13.574164 5 1 1.200
394 26 -6.688765 10.466031 -13.439441 5 1 1.200
395 26 -18.426304 10.628764 0.600877 5 1 1.200
396 26 -4.015150 5.436974 9.193770 5 1 1.200
397 26 -11.116794 19.094043 -6.017067 5 1 1.200
398 26 -6.845451 10.960287 -10.952533 5 1 1.200
399 26 -10.963353 14.443502 0.193163 5 1 1.200
400 26 -5.237928 10.609767 13.251615 5 1 1.200
401 26 -15.868641 12.867277 6.422098 5 1 1.200
402 26 -14.477926 6.633327 7.630622 5 1 1.200
403 26 -2.892161 15.259206 6.962129 5 1 1.200
404 26 -8.027092 7.740047 3.601738 5 1 1.200
405 26 -12.314940 11.842458 5.773557 5 1 1.200
406 26 -7.022447 12.481901 11.804413 5 1 1.200
407 26 -0.814557 14.264756 -2.448406 5 1 1.200
408 26 -2.013745 18.762237 2.239639 5 1 1.200
409 26 -6.369418 1.727916 9.950806 5 1 1.200
410 26 -10.204970 18.168190 -3.834683 5 1 1.200
411 26 -16.039649 6.924856 4.855188 5 1 1.200
412 26 -2.718385 4.224450 11.749354 5 1 1.200
413 26 0.647351 6.736757 4.852743 5 1 1.200
414 26 -4.478081 -1.433534 7.257239 5 1 1.200
415 26 -4.090401 9.199896 -12.529518 5 1 1.200
416 26 -1.702547 11.992884 10.825859 5 1 1.200
417 26 -2.401866 11.219078 -11.396551 5 1 1.200
418 26 -17.298825 7.874026 -7.237286 5 1 1.200
419 26 -17.755208 6.242695 1.382188 5 1 1.200
420 26 -15.426969 3.447870 7.528967 5 1 1.200
421 26 -3.243177 10.123015 7.837219 5 1 1.200
422 26 -8.823717 10.288064 12.178827 5 1 1.200
423 26 -11.915712 8.105350 -11.537984 5 1 1.200
424 26 -11.332192 2.421038 -4.328727 5 1 1.200
425 26 -13.797667 0.962612 3.153014 5 1 1.200
426 26 -7.738821 15.117162 -6.871641 5 1 1.200
427 26 -11.694958 14.720377 7.637458 5 1 1.200
428 26 -6.826720 4.610134 7.716818 5 1 1.200
429 26 -18.026942 3.667665 -2.481510 5 1 1.200
430 26 -4.308608 8.359201 10.565001 5 1 1.200
431 26 -9.092532 7.318934 12.173810 5 1 1.200
432 26 -6.539544 10.558046 9.755654 5 1 1.200
433 26 -5.015055 18.279136 1.232525 5 1 1.200
434 26 -3.539798 6.220332 -11.998870 5 1 1.200
435 26 -12.275777 5.230050 7.565867 5 1 1.200
436 26 -7.954682 3.078427 -1.410212 5 2 1.100
437 26 -9.856171 1.174316 -1.050301 5 2 1.100
438 26 -6.975740 16.406963 6.950026 5 2 1.100
439 26 -3.326972 15.416223 -2.807610 5 2 1.100
440 26 0.446112 14.352894 -5.509710 5 2 1.100
441 26 0.498630 16.855527 -4.246148 5 2 1.100
442 26 -2.635421 12.721058 -1.110964 5 2 1.100
443 26 -1.346758 15.197561 0.167283 5 2 1.100
444 26 -1.582474 17.864728 -2.665793 5 2 1.100
445 26 1.749042 14.847522 -2.318793 5 2 1.100
446 26 0.478811 17.230540 -0.671854 5 2 1.100
447 26 -2.085597 17.085837 -5.394059 5 2 1.100
448 26 0.889989 11.973682 -3.571943 5 2 1.100
449 26 -13.367562 16.658654 0.978715 5 2 1.100
450 26 -14.483334 18.255989 2.911301 5 2 1.100
451 26 -9.426292 -2.081465 5.937935 5 2 1.100
452 26 -8.235732 10.951453 -4.366657 5 2 1.100
453 26 -6.385004 6.222711 -8.727769 5 2 1.100
454 26 -5.113164 6.712867 -4.855928 5 2 1.100
455 26 -3.826510 3.962305 -10.197615 5 2 1.100
456 26 -5.350684 -1.323775 1.983683 5 2 1.100
457 26 -6.412748 19.143671 6.040607 5 2 1.100
458 26 -15.466776 6.360044 -1.814058 5 2 1.100
459 26 1.410754 3.432920 1.613610 5 2 1.100
460 26 -8.435704 1.100064 5.268338 5 2 1.100
461 26 -2.528118 0.620558 4.088760 5 2 1.100
462 26 1.556910 6.430868 -4.448509 5 2 1.100
463 26 -2.691100 16.220802 4.772642 5 2 1.100
464 26 -4.190889 3.019706 3.701980 5 2 1.100
465 26 -9.290411 -0.503189 8.929366 5 2 1.100
466 26 -11.913439 16.897682 3.756772 5 2 1.100
467 26 -8.980258 20.465366 -3.482670 5 2 1.100
468 26 -1.468854 8.466196 -10.691001 5 2 1.100
469 26 -7.724392 13.038444 7.266007 5 2 1.100
470 26 -6.533625 7.102851 1.392093 5 2 1.100
471 26 -0.995823 11.251038 1.439192 5 2 1.100
472 26 -17.080020 1.565079 -2.766119 5 2 1.100
473 26 -0.268984 16.851831 6.182085 5 2 1.100
474 26 -4.064687 9.133298 -7.113607 5 2 1.100
475 26 -10.036733 12.079099 -12.118927 5 2 1.100
476 26 -0.647159 8.540032 -7.921932 5 2 1.100
477 26 -10.912761 -0.984495 3.604017 5 2 1.100
478 26 -15.666565 8.241760 10.221567 5 2 1.100
479 26 -7.031270 5.192881 4.377457 5 2 1.100
480 26 -3.045721 2.007226 -4.248654 5 2 1.100
481 26 -8.245352 8.481061 9.535136 5 2 1.100
482 26 -13.060451 9.870785 -1.604624 5 2 1.100
483 26 -13.232399 12.893376 -3.140884 5 2 1.100
484 26 -17.056106 15.680292 2.962370 5 2 1.100
485 26 -9.550835 15.081188 2.816657 5 2 1.100
486 26 -11.289138 17.910270 -1.134534 5 2 1.100
487 26 -13.033933 14.323649 4.000619 5 2 1.100
488 26 -14.915556 16.134897 4.872749 5 2 1.100
489 26 -16.342770 17.225557 0.471061 5 2 1.100
490 26 -15.987719 16.784203 -2.723503 5 2 1.100
491 26 -10.712108 12.733021 3.408803 5 2 1.100
492 26 -15.305430 11.688996 -0.268624 5 2 1.100
493 26 -15.571234 10.912708 -2.882269 5 2 1.100
494 26 -3.047690 -1.856298 0.198736 5 2 1.100
495 26 -5.761692 1.237651 -5.558900 5 2 1.100
496 26 -5.474252 2.999596 -2.729277 5 2 1.100
497 26 -18.191293 7.345148 6.629222 5 2 1.100
498 26 -8.205721 1.524914 -4.066654 5 2 1.100
499 26 -15.482836 7.064395 -5.949670 5 2 1.100
500 26 -2.885722 8.843931 -4.437144 5 2 1.100
501 26 -9.464204 7.258058 -8.939749 5 2 1.100
502 26 -6.324942 7.256551 -13.389198 5 2 1.100
503 26 -10.771353 6.485863 -6.370822 5 2 1.100
504 26 -4.469320 11.429221 -4.304751 5 2 1.100
505 26 -5.467243 15.124541 -10.045626 5 2 1.100
506 26 -10.872966 13.689800 -9.595286 5 2 1.100
507 26 -12.463041 11.047720 -10.620032 5 2 1.100
508 26 -9.200733 3.887098 -11.124534 5 2 1.100
509 26 -7.695092 5.527957 -6.018300 5 2 1.100
510 26 -4.263189 11.459027 -9.199257 5 2 1.100
511 26 -12.100747 11.403040 -7.757488 5 2 1.100
512 26 -6.079240 11.858102 -6.758961 5 2 1.100
513 26 -1.028573 11.503782 -8.901171 5 2 1.100
514 26 -7.717774 13.729109 -11.816988 5 2 1.100
515 26 -14.286477 0.547914 0.804813 5 2 1.100
516 26 -6.557616 -2.651267 0.098502 5 2 1.100
517 26 -7.975214 0.533272 1.022299 5 2 1.100
518 26 -4.249086 20.124951 3.360276 5 2 1.100
519 26 -13.393092 7.038169 11.433418 5 2 1.100
520 26 -11.223324 9.149487 -5.475013 5 2 1.100
521 26 -1.685309 5.704957 -9.284198 5 2 1.100
522 26 -4.724806 12.880842 -11.961995 5 2 1.100
523 26 -15.465756 11.849090 9.407499 5 2 1.100
524 26 -14.427861 5.132724 0.715757 5 2 1.100
525 26 -3.202711 16.100112 9.543346 5 2 1.100
526 26 -16.047717 14.729235 -0.852270 5 2 1.100
527 26 -11.835509 19.198098 1.428697 5 2 1.100
528 26 -12.987322 9.769265 1.199785 5 2 1.100
529 26 -16.222783 13.763797 -3.627799 5 2 1.100
530 26 -9.547374 17.003409 0.757840 5 2 1.100
531 26 -15.737928 14.544726 -7.409365 5 2 1.100
532 26 -13.172307 15.847241 -2.539758 5 2 1.100
533 26 -11.064162 11.934723 -1.487997 5 2 1.100
534 26 -13.360854 16.632133 -7.556061 5 2 1.100
535 26 -10.904496 7.019262 2.581939 5 2 1.100
536 26 -5.667792 1.077258 0.013249 5 2 1.100
537 26 -16.448913 5.618950 -8.989669 5 2 1.100
538 26 2.058825 12.860357 5.133511 5 2 1.100
539 26 -9.568420 6.236718 -12.550346 5 2 1.100
540 26 -5.975346 9.249735 -3.334216 5 2 1.100
541 26 -7.372870 7.610078 -11.011611 5 2 1.100
542 26 -4.393933 4.909111 -7.426079 5 2 1.100
543 26 -15.536246 8.879868 7.300504 5 2 1.100
544 26 -12.619008 4.335404 -3.108010 5 2 1.100
545 26 -11.674412 1.074414 -8.029694 5 2 1.100
546 26 -13.339059 1.403277 -2.429190 5 2 1.100
547 26 -18.335086 14.128978 0.588138 5 2 1.100
548 26 -15.404210 13.457773 2.521850 5 2 1.100
549 26 -8.959063 7.497273 -3.940944 5 2 1.100
550 26 -13.981220 18.659611 -1.291591 5 2 1.100
551 26 -9.846054 13.085271 -6.521297 5 2 1.100
552 26 -11.933513 13.469572 10.719674 5 2 1.100
553 26 -8.383417 13.761971 -0.087880 5 2 1.100
554 26 -17.886760 12.543833 3.215857 5 2 1.100
555 26 -20.038995 5.939743 -2.278066 5 2 1.100
556 26 -17.817635 4.025715 -6.148037 5 2 1.100
557 26 -15.817628 14.475072 8.433612 5 2 1.100
558 26 -11.803705 11.125818 8.443407 5 2 1.100
559 26 1.875663 5.658174 6.846023 5 2 1.100
560 26 -9.289355 5.217787 1.552187 5 2 1.100
561 26 -13.581718 0.003062 5.814789 5 2 1.100
562 26 -11.257007 2.216976 4.523720 5 2 1.100
563 26 -19.296229 8.262776 -3.422966 5 2 1.100
564 26 -5.435808 8.307982 4.332927 5 2 1.100
565 26 -12.773330 0.308478 8.293115 5 2 1.100
566 26 -13.344039 3.130649 -7.109183 5 2 1.100
567 26 -16.520541 8.616071 -9.711364 5 2 1.100
568 26 2.426539 10.210966 3.055918 5 2 1.100
569 26 -16.756359 10.729284 -7.683072 5 2 1.100
570 26 -4.514400 4.814844 1.024899 5 2 1.100
571 26 -2.503581 5.165594 -1.231248 5 2 1.100
572 26 -18.196243 11.515531 6.827866 5 2 1.100
573 26 -0.413129 9.503990 11.247402 5 2 1.100
574 26 -4.391329 -2.826536 -2.111056 5 2 1.100
575 26 -8.847139 -1.296457 -5.250215 5 2 1.100
576 26 -0.007419 0.903805 2.643427 5 2 1.100
577 26 -9.169563 -1.685940 -0.342250 5 2 1.100
578 26 1.707949 8.838069 6.102963 5 2 1.100
579 26 -1.199594 2.439114 5.661425 5 2 1.100
580 26 -2.331876 6.626485 -6.570819 5 2 1.100
581 26 -4.644341 -0.294609 -7.661442 5 2 1.100
582 26 -6.203899 -2.233521 -5.769600 5 2 1.100
583 26 0.113504 2.214625 -0.624681 5 2 1.100
584 26 -4.139893 7.940740 -9.687480 5 2 1.100
585 26 -11.700643 5.516073 -10.138431 5 2 1.100
586 26 -9.605485 8.594800 5.664835 5 2 1.100
587 26 -5.978398 10.218760 2.037293 5 2 1.100
588 26 -16.104477 10.296957 2.353698 5 2 1.100
589 26 -8.025146 18.171191 8.654333 5 2 1.100
590 26 -6.181640 13.544501 4.061338 5 2 1.100
591 26 1.614969 15.248871 2.852191 5 2 1.100
592 26 -4.249192 11.937805 4.949591 5 2 1.100
593 26 -0.730485 12.942539 3.878941 5 2 1.100
594 26 -13.780443 11.062926 3.483260 5 2 1.100
595 26 -10.374987 15.037669 -2.556503 5 2 1.100
596 26 -10.102261 -1.182757 -2.869542 5 2 1.100
597 26 -2.914466 18.047126 7.432242 5 2 1.100
598 26 -1.464680 4.451601 9.392633 5 2 1.100
599 26 0.812485 3.246298 -5.445510 5 2 1.100
600 26 -3.203438 0.568527 -1.652723 5 2 1.100
601 26 -20.177217 8.838659 1.499052 5 2 1.100
602 26 -4.871385 2.203862 7.647443 5 2 1.100
603 26 -10.637974 19.003261 6.930390 5 2 1.100
604 26 -8.738464 3.818477 9.177570 5 2 1.100
605 26 -12.310723 16.442249 9.318579 5 2 1.100
606 26 -8.875334 20.200501 4.534609 5 2 1.100
607 26 -17.438083 4.484289 5.650058 5 2 1.100
608 26 -0.641474 10.355519 8.592445 5 2 1.100
609 26 0.490347 3.753537 4.087180 5 2 1.100
610 26 -12.427894 7.923638 9.072231 5 2 1.100
611 26 -6.553350 13.582190 -4.667539 5 2 1.100
612 26 -9.450644 9.181415 -13.001619 5 2 1.100
613 26 -8.518285 15.586815 -9.542995 5 2 1.100
614 26 -1.629980 10.695697 -6.278889 5 2 1.100
615 26 -9.831629 10.038361 -10.029179 5 2 1.100
616 26 -9.375139 10.240517 -7.111983 5 2 1.100
617 26 2.559254 12.998070 0.401572 5 2 1.100
618 26 -4.344100 12.157018 9.329865 5 2 1.100
619 26 -9.766250 5.617659 4.901078 5 2 1.100
620 26 -1.504788 -0.936714 -2.981199 5 2 1.100
621 26 -14.060974 5.062344 4.932911 5 2 1.100
622 26 -14.530921 1.826700 -5.235291 5 2 1.100
623 26 -9.275178 4.451587 -8.279781 5 2 1.100
624 26 -6.496984 20.610246 -0.657370 5 2 1.100
625 26 -5.869905 17.416829 -1.159354 5 2 1.100
626 26 1.671051 10.268398 -0.297449 5 2 1.100
627 26 -3.139814 20.365643 0.113565 5 2 1.100
628 26 -6.856033 20.341190 1.879982 5 2 1.100
629 26 -4.547008 19.727357 -2.451369 5 2 1.100
630 26 -4.612646 16.043307 1.833157 5 2 1.100
631 26 -18.852796 9.729056 -6.172652 5 2 1.100
632 26 -7.809817 -0.218347 -7.504488 5 2 1.100
633 26 -18.553997 3.175390 -0.009003 5 2 1.100
634 26 -0.315695 14.558645 7.998390 5 2 1.100
635 26 -2.228403 2.026666 1.405390 5 2 1.100
636 26 -2.193784 0.308608 -6.123593 5 2 1.100
637 26 -2.258168 7.732062 2.185504 5 2 1.100
638 26 -3.363028 13.181349 -6.772882 5 2 1.100