ITEM: TIMESTEP
0
ITEM: NUMBER OF ATOMS
633
ITEM: BOX BOUNDS pp pp pp
-34.069228 35.218594
-38.008354 31.991646
-30.463787 27.168036
ITEM: ATOMS id type x y z sphere_id kind radius
1 27 6.633122 -9.764815 16.469287 0 0 1.500
2 27 16.361404 -14.273125 1.534533 0 0 1.500
3 27 11.250482 -14.933641 5.746184 0 1 1.200
4 27 14.997215 -11.983161 17.168036 0 1 1.200
5 27 12.590422 -9.083251 5.879984 0 1 1.200
6 27 11.304685 -11.830163 5.035818 0 1 1.200
7 27 14.231547 -18.223061 9.619847 0 1 1.200
8 27 10.806951 -6.700519 12.976132 0 1 1.200
9 27 11.894500 -9.116055 10.867717 0 1 1.200
10 27 16.060283 -6.391778 9.375962 0 1 1.200
11 27 9.879028 -8.932182 14.974706 0 1 1.200
12 27 14.750218 -14.469853 12.991741 0 1 1.200
13 27 8.379591 -10.223209 9.577484 0 1 1.200
14 27 11.818298 -13.558239 16.617370 0 1 1.200
15 27 15.707866 -15.904775 5.702376 0 1 1.200
16 27 9.119259 -12.424759 7.127940 0 1 1.200
17 27 8.932547 -14.896371 13.807972 0 1 1.200
18 27 16.962732 -17.261977 11.308672 0 1 1.200
19 27 11.624102 -13.887716 13.201714 0 1 1.200
20 27 11.131786 -10.788125 13.291873 0 1 1.200
21 27 13.395969 -14.125682 7.629521 0 1 1.200
22 27 17.188671 -10.083348 5.301783 0 1 1.200
23 27 16.399980 -5.902602 12.409952 0 1 1.200
24 27 20.425834 -10.030703 9.208589 0 1 1.200
25 27 17.548224 -10.711873 9.371059 0 1 1.200
26 27 11.751160 -10.517724 16.943937 0 1 1.200
27 27 16.532280 -11.077943 13.570490 0 1 1.200
28 27 10.040734 -9.226697 7.362770 0 1 1.200
29 27 16.110815 -16.554973 14.136238 0 1 1.200
30 27 8.565213 -9.092243 12.263622 0 1 1.200
31 27 17.189045 -13.536283 15.504772 0 2 1.100
32 27 15.130665 -15.412774 9.918312 0 2 1.100
33 27 18.551687 -7.985552 13.929607 0 2 1.100
34 27 12.565014 -7.042322 8.228130 0 2 1.100
35 27 20.194935 -13.123407 8.688091 0 2 1.100
36 27 18.287113 -8.342095 7.714262 0 2 1.100
37 27 10.045423 -7.316805 10.033043 0 2 1.100
38 27 19.062498 -15.633628 9.929679 0 2 1.100
39 27 7.908913 -12.067158 12.773525 0 2 1.100
40 27 19.380001 -11.476340 6.477528 0 2 1.100
41 27 13.641879 -5.742874 13.868293 0 2 1.100
42 27 17.321181 -9.947845 16.100345 0 2 1.100
43 27 16.455913 -8.823290 11.717820 0 2 1.100
44 27 11.925647 -16.232224 14.897454 0 2 1.100
45 27 15.007079 -11.369223 7.137387 0 2 1.100
46 27 14.608459 -8.908705 9.229425 0 2 1.100
47 27 14.325359 -10.953694 4.294456 0 2 1.100
48 27 13.293397 -17.098844 6.829973 0 2 1.100
49 27 18.880623 -7.351924 10.640696 0 2 1.100
50 27 11.846294 -11.431645 8.037383 0 2 1.100
51 27 12.193523 -7.445271 15.840839 0 2 1.100
52 27 17.493734 -13.145776 11.326647 0 2 1.100
53 27 17.035074 -13.074302 5.020824 0 2 1.100
54 27 16.781991 -13.567402 8.180948 0 2 1.100
55 27 20.385735 -12.723701 11.560093 0 2 1.100
56 27 19.308371 -11.694957 14.322936 0 2 1.100
57 27 9.468960 -12.407938 15.418414 0 2 1.100
58 27 7.730795 -13.181428 9.943309 0 2 1.100
59 27 14.433506 -9.028963 16.800833 0 2 1.100
60 27 15.999131 -7.114119 15.246656 0 2 1.100
61 27 10.913654 -17.280000 12.246320 0 2 1.100
62 27 10.374017 -12.368055 10.626605 0 2 1.100
63 27 8.839948 -15.659281 10.933981 0 2 1.100
64 27 13.779395 -13.885055 4.602492 0 2 1.100
65 27 13.701694 -11.662199 14.649650 0 2 1.100
66 27 13.842489 -8.751152 13.375344 0 2 1.100
67 27 14.432911 -14.867072 16.032056 0 2 1.100
68 27 9.683890 -15.216092 8.064654 0 2 1.100
69 27 12.066562 -15.039362 10.313154 0 2 1.100
70 27 13.315906 -5.991107 10.974264 0 2 1.100
71 27 18.759218 -14.991760 6.652089 0 2 1.100
72 27 19.920357 -9.798882 12.112769 0 2 1.100
73 27 11.301409 -17.560926 9.110030 0 2 1.100
74 27 18.670886 -14.979671 13.168649 0 2 1.100
75 27 15.377150 -8.031308 6.548471 0 2 1.100
76 27 13.753085 -17.624208 12.526779 0 2 1.100
77 27 16.826055 -17.203848 8.054806 0 2 1.100
78 27 14.426161 -11.876698 11.031016 0 3 2.400
79 27 13.816000 -11.912698 10.607948 0 4 2.800
80 24 13.427012 17.583959 -3.550889 1 0 1.500
81 24 19.953247 4.746095 -11.613005 1 0 1.500
82 24 20.381794 15.831131 -2.382929 1 1 1.200
83 24 22.151733 5.033168 1.664414 1 1 1.200
84 24 24.401264 4.325210 -0.202628 1 1 1.200
85 24 24.710082 5.921649 2.214455 1 1 1.200
86 24 16.902713 9.422296 -12.412918 1 1 1.200
87 24 24.886518 6.135256 -3.665584 1 1 1.200
88 24 12.601794 12.305470 -10.601483 1 1 1.200
89 24 13.458095 9.317278 -12.490253 1 1 1.200
90 24 22.288598 -0.215470 -6.012458 1 1 1.200
91 24 22.030380 10.603305 1.319044 1 1 1.200
92 24 17.117590 10.928261 -7.932989 1 1 1.200
93 24 25.218594 8.308588 -1.946399 1 1 1.200
94 24 22.297101 12.704414 3.448338 1 1 1.200
95 24 13.180220 13.969218 -8.111750 1 1 1.200
96 24 24.607047 2.840381 -5.630020 1 1 1.200
97 24 11.383843 5.599715 -0.088143 1 1 1.200
98 24 24.383507 9.310320 1.647607 1 1 1.200
99 24 17.826545 12.337727 -10.848338 1 1 1.200
100 24 15.753118 10.134071 -0.062114 1 1 1.200
101 24 19.893055 5.280215 -2.599456 1 1 1.200
102 24 14.823774 10.062666 -9.353344 1 1 1.200
103 24 19.568736 2.822070 -0.470788 1 1 1.200
104 24 15.042478 6.951018 -12.221622 1 1 1.200
105 24 18.150023 4.394519 -5.714479 1 1 1.200
106 24 18.453102 10.015143 2.266730 1 1 1.200
107 24 11.942880 1.294282 -6.378723 1 1 1.200
108 24 11.498609 11.275790 -7.880277 1 1 1.200
109 24 21.437425 3.350236 3.928808 1 1 1.200
110 24 18.433508 -1.202176 -2.069021 1 1 1.200
111 24 13.530417 3.651761 -0.137628 1 1 1.200
112 24 15.207039 1.245876 0.272146 1 1 1.200
113 24 11.142639 3.573458 -2.243024 1 1 1.200
114 24 14.008732 2.418818 2.656624 1 1 1.200
115 24 13.431339 1.909649 -2.475552 1 1 1.200
116 24 11.938479 1.340537 0.062111 1 1 1.200
117 24 17.487278 16.352182 -3.141965 1 1 1.200
118 24 15.201421 -0.239904 -5.368601 1 1 1.200
119 24 13.246641 14.210771 3.867506 1 1 1.200
120 24 24.316474 11.813504 0.093131 1 1 1.200
121 24 13.497315 7.111033 5.407689 1 1 1.200
122 24 17.407961 12.125480 3.344863 1 1 1.200
123 24 11.110529 4.344772 -7.076042 1 1 1.200
124 24 18.845538 9.845312 -10.103996 1 1 1.200
125 24 22.724994 5.990171 4.441039 1 1 1.200
126 24 14.131779 0.578340 -8.571668 1 1 1.200
127 24 21.725722 0.826227 -0.791775 1 1 1.200
128 24 22.376576 10.539764 -3.231546 1 1 1.200
129 24 19.348406 7.877023 -5.052301 1 1 1.200
130 24 14.100958 7.787419 0.802754 1 1 1.200
131 24 18.735755 10.630026 -1.467582 1 1 1.200
132 24 17.281281 16.195345 2.684384 1 1 1.200
133 24 15.104553 11.872541 -12.044786 1 1 1.200
134 24 22.017588 14.327192 -6.585483 1 1 1.200
135 24 17.180019 1.021967 -3.491536 1 1 1.200
136 24 13.733528 3.323487 -7.218006 1 1 1.200
137 24 11.913871 3.229589 -9.707612 1 1 1.200
138 24 22.211640 14.049743 -3.641697 1 1 1.200
139 24 18.326782 4.714949 6.254799 1 1 1.200
140 24 13.095162 9.565351 -2.255975 1 1 1.200
141 24 16.594309 16.093086 -6.044644 1 1 1.200
142 24 11.114239 10.723927 -3.873786 1 1 1.200
143 24 19.670063 16.794030 -5.321469 1 1 1.200
144 24 22.113728 13.512468 0.713679 1 1 1.200
145 24 12.826300 14.081502 -4.002961 1 1 1.200
146 24 16.576653 7.590503 -9.726605 1 1 1.200
147 24 17.296120 10.328080 7.350131 1 1 1.200
148 24 23.367068 9.790739 -7.125019 1 1 1.200
149 24 12.110835 8.332056 -7.784639 1 1 1.200
150 24 19.084062 14.957405 -7.860361 1 1 1.200
151 24 15.541666 13.814590 -9.588268 1 1 1.200
152 24 19.353036 14.004089 -4.745411 1 1 1.200
153 24 14.641506 8.636400 7.721639 1 1 1.200
154 24 17.872819 1.858705 -7.632630 1 1 1.200
155 24 15.230733 4.827543 5.790253 1 1 1.200
156 24 23.163071 8.418477 -4.039333 1 1 1.200
157 24 25.106569 10.621839 -4.307080 1 1 1.200
158 24 16.876764 6.604613 8.172382 1 1 1.200
159 24 12.981213 6.842036 -10.340854 1 1 1.200
160 24 14.912313 12.140844 -2.635708 1 1 1.200
161 24 14.310565 6.671595 -3.268407 1 1 1.200
162 24 16.701719 7.451852 5.478279 1 1 1.200
163 24 15.421609 -1.069921 -2.652116 1 1 1.200
164 24 15.136763 8.293971 -7.170228 1 1 1.200
165 24 15.101799 9.739200 5.036351 1 1 1.200
166 24 19.557029 8.165779 7.299280 1 1 1.200
167 24 20.549536 12.153799 -6.899282 1 1 1.200
168 24 17.404609 4.626962 -8.149257 1 1 1.200
169 24 19.190326 7.085596 4.659142 1 1 1.200
170 24 14.242156 11.471616 -6.768526 1 1 1.200
171 24 11.498478 6.947933 -4.107988 1 1 1.200
172 24 17.764714 -1.329931 -5.653839 1 1 1.200
173 24 17.461116 4.449477 0.995101 1 1 1.200
174 24 20.265720 7.503872 -0.336320 1 2 1.100
175 24 17.085165 7.050890 1.071095 1 2 1.100
176 24 22.833425 9.851437 4.172740 1 2 1.100
177 24 14.250642 14.660923 -1.638591 1 2 1.100
178 24 14.290049 4.888652 -4.659590 1 2 1.100
179 24 11.220386 11.099231 -0.921799 1 2 1.100
180 24 12.243482 4.552446 2.510362 1 2 1.100
181 24 17.294297 13.006280 -4.836944 1 2 1.100
182 24 19.609481 0.646093 -4.046146 1 2 1.100
183 24 19.475722 0.610729 1.200641 1 2 1.100
184 24 14.645246 2.751630 -10.267133 1 2 1.100
185 24 11.405410 9.316960 -10.435657 1 2 1.100
186 24 24.859043 7.655648 -6.251434 1 2 1.100
187 24 23.440791 2.482042 1.889758 1 2 1.100
188 24 19.662723 11.148189 4.873276 1 2 1.100
189 24 18.706296 13.071007 -0.575326 1 2 1.100
190 24 17.633530 2.726840 3.145162 1 2 1.100
191 24 12.005263 8.839461 2.331002 1 2 1.100
192 24 14.196689 11.939869 1.127011 1 2 1.100
193 24 20.683349 7.856734 -7.374746 1 2 1.100
194 24 20.468534 3.916145 -6.962386 1 2 1.100
195 24 22.024810 4.083733 -3.097148 1 2 1.100
196 24 15.922218 17.289468 0.694006 1 2 1.100
197 24 13.211476 12.644520 5.736545 1 2 1.100
198 24 20.949310 -0.272094 -8.024290 1 2 1.100
199 24 22.155420 5.294804 -10.387751 1 2 1.100
200 24 24.283129 4.155124 -7.586519 1 2 1.100
201 24 17.600894 4.103809 -12.643553 1 2 1.100
202 24 20.602750 7.262492 -12.026764 1 2 1.100
203 24 19.669860 2.232683 -11.052415 1 2 1.100
204 24 19.306820 16.629144 1.358443 1 2 1.100
205 24 12.350007 15.067327 1.663567 1 2 1.100
206 24 18.654357 15.161592 4.737650 1 2 1.100
207 24 23.796637 0.913809 -4.406184 1 5 1.700
208 24 15.320503 15.438053 4.102638 1 6 1.700
209 24 17.519079 7.247606 -1.566484 1 7 1.800
210 24 17.556085 7.955317 -2.873582 1 4 2.800
211 29 -12.171938 -16.197485 -0.400877 2 1 1.200
212 29 -18.303672 -16.647897 7.887543 2 1 1.200
213 29 -23.050294 -14.737739 2.531876 2 1 1.200
214 29 -15.913762 -16.177054 -5.766392 2 1 1.200
215 29 -15.134896 -11.111677 1.841960 2 1 1.200
216 29 -23.716651 -16.422923 0.867739 2 1 1.200
217 29 -16.964799 -17.579602 2.903691 2 1 1.200
218 29 -16.295640 -11.011856 8.877736 2 1 1.200
219 29 -14.539993 -12.710258 -4.706528 2 1 1.200
220 29 -21.725254 -10.361562 -0.970804 2 1 1.200
221 29 -16.034753 -18.433347 0.360077 2 1 1.200
222 29 -14.775590 -14.306287 7.526554 2 1 1.200
223 29 -19.655264 -11.999728 -6.047500 2 2 1.100
224 29 -20.329735 -8.532710 3.108330 2 2 1.100
225 29 -20.079798 -14.140266 -2.613210 2 2 1.100
226 29 -23.346495 -11.218899 2.735654 2 2 1.100
227 29 -18.938147 -17.721324 -5.101906 2 2 1.100
228 29 -19.721900 -14.584581 4.440300 2 2 1.100
229 29 -23.486497 -12.551618 5.244722 2 2 1.100
230 29 -18.997887 -10.913253 1.790906 2 2 1.100
231 29 -17.658034 -10.059043 4.563838 2 2 1.100
232 29 -21.727197 -10.548144 7.412378 2 2 1.100
233 29 -22.600016 -9.253144 4.727075 2 2 1.100
234 29 -17.429788 -12.653370 -3.142730 2 2 1.100
235 29 -20.850821 -13.251620 1.602960 2 2 1.100
236 29 -20.218098 -18.530253 0.629500 2 2 1.100
237 29 -17.975884 -13.907651 9.329446 2 2 1.100
238 29 -15.763338 -18.913649 -2.953671 2 2 1.100
239 29 -15.596468 -13.183444 10.622561 2 2 1.100
240 29 -12.115451 -14.031980 -3.890033 2 2 1.100
241 29 -22.975623 -11.853753 -3.307097 2 2 1.100
242 29 -13.763628 -12.566115 -7.096420 2 2 1.100
243 29 -19.717043 -9.568129 -3.366222 2 2 1.100
244 29 -15.620699 -10.217422 -5.234072 2 2 1.100
245 29 -24.069228 -12.191462 -0.787641 2 2 1.100
246 29 -21.312525 -16.596152 -3.424538 2 2 1.100
247 29 -19.527049 -8.722095 6.299593 2 2 1.100
248 29 -15.746056 -8.766577 1.533101 2 2 1.100
249 29 -12.574158 -10.598719 2.781645 2 2 1.100
250 29 -18.163312 -20.890534 1.165531 2 2 1.100
251 29 -13.059155 -14.971472 9.951715 2 2 1.100
252 29 -14.260420 -16.144475 1.666484 2 2 1.100
253 29 -11.632104 -12.291795 6.741326 2 2 1.100
254 29 -19.310738 -19.112488 3.422271 2 2 1.100
255 29 -15.996748 -16.376600 9.815749 2 2 1.100
256 29 -13.767807 -16.847418 -6.078390 2 2 1.100
257 29 -15.083307 -15.959730 -1.398809 2 2 1.100
258 29 -15.847767 -18.039259 7.171635 2 2 1.100
259 29 -11.982939 -18.148568 1.797507 2 2 1.100
260 29 -13.134053 -11.906783 9.228468 2 2 1.100
261 29 -13.201646 -18.840028 -1.393691 2 2 1.100
262 29 -16.495773 -14.991932 5.828026 2 2 1.100
263 29 -13.925828 -19.379390 3.626974 2 2 1.100
264 29 -13.232489 -17.667436 8.278333 2 2 1.100
265 29 -14.040171 -20.756195 1.240911 2 2 1.100
266 29 -12.732069 -16.672590 5.775830 2 2 1.100
267 29 -21.265372 -14.545805 -5.674707 2 2 1.100
268 29 -21.451070 -13.614534 7.414876 2 2 1.100
269 29 -12.129471 -12.342509 0.709722 2 2 1.100
270 29 -18.687797 -15.585096 -7.352431 2 2 1.100
271 29 -22.053868 -15.612206 5.336884 2 2 1.100
272 29 -17.382617 -13.015794 -7.211636 2 2 1.100
273 29 -19.138881 -11.663279 6.912206 2 2 1.100
274 29 -14.772058 -10.593216 -0.709487 2 2 1.100
275 29 -15.968979 -21.102003 -1.015418 2 2 1.100
276 29 -11.083678 -15.150291 7.771813 2 2 1.100
277 29 -12.614307 -11.348271 -3.420726 2 2 1.100
278 29 -22.523130 -8.945407 -3.294342 2 2 1.100
279 29 -18.736691 -19.677663 -1.766309 2 2 1.100
280 29 -13.901833 -13.482623 4.859213 2 2 1.100
281 29 -16.509939 -20.605813 3.683346 2 2 1.100
282 29 -10.994919 -14.508174 4.785239 2 2 1.100
283 29 -18.191780 -16.741168 -0.503335 2 2 1.100
284 29 -14.514797 -10.923287 6.605971 2 2 1.100
285 29 -23.412622 -8.641862 0.023282 2 2 1.100
286 29 -19.779437 -8.361105 -0.838528 2 2 1.100
287 29 -18.233381 -14.897015 -4.547676 2 3 2.400
288 29 -20.323255 -11.825802 4.263908 2 3 2.400
289 29 -17.301688 -14.153319 1.576435 2 4 2.800
290 28 2.467949 -25.639601 -5.245261 3 1 1.200
291 28 -1.949194 -26.359491 -5.780362 3 1 1.200
292 28 1.223263 -23.074554 -0.671924 3 1 1.200
293 28 -3.465467 -24.385650 -2.276878 3 1 1.200
294 28 0.446956 -26.592661 -0.765587 3 1 1.200
295 28 4.222476 -20.666051 -7.226458 3 1 1.200
296 28 3.823316 -25.724612 -7.705348 3 1 1.200
297 28 3.229163 -23.263241 -4.115991 3 1 1.200
298 28 0.902097 -25.834837 -7.995174 3 1 1.200
299 28 5.282146 -25.248109 -4.956326 3 1 1.200
300 28 0.640603 -20.830054 0.675727 3 1 1.200
301 28 -0.745226 -21.877923 -13.084183 3 1 1.200
302 28 -1.205711 -16.090338 -4.066798 3 1 1.200
303 28 3.525071 -26.398578 -2.749493 3 1 1.200
304 28 -2.967588 -27.127864 -7.859184 3 1 1.200
305 28 1.717502 -28.008354 -6.044240 3 1 1.200
306 28 -0.032842 -19.961575 -11.697020 3 1 1.200
307 28 -1.534120 -18.433060 -1.881029 3 1 1.200
308 28 1.043474 -23.923700 1.592915 3 1 1.200
309 28 0.328872 -20.162333 -3.670826 3 1 1.200
310 28 -2.434016 -19.161067 -12.618592 3 1 1.200
311 28 3.612100 -22.020584 -0.763456 3 1 1.200
312 28 -1.201198 -18.298652 -5.315931 3 1 1.200
313 28 -4.551258 -22.911030 -10.471129 3 1 1.200
314 28 2.405812 -21.245745 -9.967549 3 8 2.000
315 28 -4.991001 -19.148270 -10.233331 3 2 1.100
316 28 -2.223469 -22.590172 -8.706078 3 2 1.100
317 28 -6.117439 -21.331793 -7.582173 3 2 1.100
318 28 -0.257557 -17.449677 -11.267766 3 2 1.100
319 28 -1.312524 -16.311943 -7.788089 3 2 1.100
320 28 0.026169 -19.243055 -7.402029 3 2 1.100
321 28 -5.892057 -24.593269 -9.386298 3 2 1.100
322 28 -0.922852 -27.992247 -3.258813 3 2 1.100
323 28 -2.935927 -24.994794 0.466948 3 2 1.100
324 28 -4.280981 -26.840458 -2.139904 3 2 1.100
325 28 1.586096 -17.756410 -3.098569 3 2 1.100
326 28 -3.710667 -17.623383 -6.643605 3 2 1.100
327 28 6.120255 -21.784475 -6.196415 3 2 1.100
328 28 4.693651 -19.356184 -4.977304 3 2 1.100
329 28 1.536671 -16.784541 -6.102934 3 2 1.100
330 28 4.214406 -22.902940 -10.171188 3 2 1.100
331 28 -5.466934 -25.435889 -4.629955 3 2 1.100
332 28 -2.802987 -22.086752 -0.387246 3 2 1.100
333 28 3.101919 -18.862767 -9.736066 3 2 1.100
334 28 -5.480643 -23.055322 -1.567827 3 2 1.100
335 28 -3.604690 -19.293876 -4.045624 3 2 1.100
336 28 -4.268104 -22.862576 -4.359628 3 2 1.100
337 28 1.399690 -23.644512 -11.019821 3 2 1.100
338 28 -3.007334 -24.621359 -11.548642 3 2 1.100
339 28 -0.330723 -25.415765 -3.056511 3 9 3.000
340 28 -3.772383 -20.633828 -8.401042 3 3 2.400
341 28 -0.464965 -22.294337 -5.847655 3 4 2.800
342 30 7.824868 -10.477674 -18.464347 4 1 1.200
343 30 11.566084 -16.370562 -14.214221 4 1 1.200
344 30 8.097076 -13.257616 -17.921102 4 1 1.200
345 30 9.664141 -11.547961 -14.112055 4 1 1.200
346 30 11.924162 -15.335301 -18.561760 4 2 1.100
347 30 12.238779 -12.232301 -19.208547 4 2 1.100
348 30 14.797481 -13.653972 -14.131600 4 2 1.100
349 30 14.620282 -11.791945 -17.070677 4 2 1.100
350 30 12.757818 -10.367104 -14.735333 4 2 1.100
351 30 11.089347 -10.058507 -17.319424 4 2 1.100
352 30 13.667853 -17.555011 -13.396846 4 2 1.100
353 30 7.444895 -11.448910 -13.560407 4 2 1.100
354 30 9.058565 -16.961701 -13.966741 4 2 1.100
355 30 5.567433 -12.396288 -18.053131 4 2 1.100
356 30 7.734509 -16.041662 -18.608254 4 2 1.100
357 30 14.355884 -15.159193 -16.802291 4 2 1.100
358 30 11.417237 -15.870202 -11.584609 4 2 1.100
359 30 12.337244 -12.736898 -12.678509 4 2 1.100
360 30 11.168553 -18.341827 -16.047754 4 2 1.100
361 30 8.416449 -13.346202 -20.463787 4 2 1.100
362 30 6.473752 -14.492657 -16.055570 4 2 1.100
363 30 12.267282 -12.905067 -16.069029 4 3 2.400
364 30 10.499028 -13.839289 -16.033784 4 4 2.800
365 26 -3.077712 10.251910 7.401620 5 1 1.200
366 26 -16.844726 10.641560 -6.208164 5 1 1.200
367 26 -4.892533 5.560253 12.551639 5 1 1.200
368 26 -15.092758 16.796878 -6.590474 5 1 1.200
369 26 -14.215236 15.049052 -8.036354 5 1 1.200
370 26 -1.508334 9.616064 -7.136730 5 1 1.200
371 26 -1.828413 1.202024 -2.258324 5 1 1.200
372 26 -11.255112 15.149276 5.614250 5 1 1.200
373 26 -6.465102 -2.236140 1.057960 5 1 1.200
374 26 -1.260221 8.435720 9.287938 5 1 1.200
375 26 -6.992539 2.679630 2.740844 5 1 1.200
376 26 -6.547645 9.698902 9.910489 5 1 1.200
377 26 -14.675904 7.350295 6.296597 5 1 1.200
378 26 -4.924063 -1.937989 -1.424202 5 1 1.200
379 26 -17.492439 15.368526 1.776187 5 1 1.200
380 26 -1.334639 14.767968 -3.301544 5 1 1.200
381 26 -3.264122 -0.939086 5.042974 5 1 1.200
382 26 -3.714794 3.093417 3.690228 5 1 1.200
383 26 -16.404764 13.615654 5.634514 5 1 1.200
384 26 -4.391287 15.867790 -6.706646 5 1 1.200
385 26 -6.927754 5.457207 4.301882 5 1 1.200
386 26 -3.905406 9.256681 10.239484 5 1 1.200
387 26 -3.474710 2.269300 0.301914 5 1 1.200
388 26 -4.020685 6.694400 -8.815462 5 1 1.200
389 26 -8.298933 -0.640471 5.529839 5 1 1.200
390 26 -3.926037 -0.354247 -3.421676 5 1 1.200
391 26 -0.780107 2.326506 3.218930 5 1 1.200
392 26 -9.179097 10.793509 13.315796 5 1 1.200
393 26 -9.628084 10.827877 -5.030068 5 1 1.200
394 26 -5.378984 1.744892 -2.171722 5 1 1.200
395 26 -18.435336 14.568105 -0.885832 5 1 1.200
396 26 -9.028014 10.686608 7.120475 5 1 1.200
397 26 -11.569649 14.731928 -4.725361 5 1 1.200
398 26 -0.542863 1.442561 0.434542 5 1 1.200
399 26 -6.576138 17.736849 5.241281 5 1 1.200
400 26 -15.835679 5.068495 4.760075 5 1 1.200
401 26 -12.715790 3.897210 7.900771 5 1 1.200
402 26 -10.842091 0.753626 -4.107829 5 1 1.200
403 26 -7.779193 15.574532 -7.417764 5 1 1.200
404 26 -8.727319 1.228279 0.766577 5 1 1.200
405 26 -0.446286 14.094372 4.125095 5 1 1.200
406 26 -14.823659 6.773241 -4.416542 5 1 1.200
407 26 -9.777875 1.600734 -9.452467 5 1 1.200
408 26 -15.565224 15.387018 -0.467188 5 1 1.200
409 26 -17.022240 8.654627 7.557788 5 1 1.200
410 26 -3.876437 1.222488 7.400701 5 1 1.200
411 26 0.029365 6.441283 4.521115 5 1 1.200
412 26 -18.807832 11.021055 -4.672535 5 1 1.200
413 26 -9.463904 6.638914 9.917582 5 1 1.200
414 26 -5.742734 1.664500 5.178269 5 1 1.200
415 26 -4.637118 12.528171 8.668488 5 1 1.200
416 26 -12.863139 19.137394 4.049900 5 1 1.200
417 26 -4.484825 15.347713 -9.665317 5 1 1.200
418 26 -17.374853 5.898271 7.793201 5 1 1.200
419 26 -3.634080 -2.133869 1.901682 5 1 1.200
420 26 -8.909011 -1.373853 2.187961 5 1 1.200
421 26 -5.829707 10.911438 6.500143 5 1 1.200
422 26 -14.330146 9.969854 0.883799 5 1 1.200
423 26 -10.820347 11.271768 -11.083797 5 1 1.200
424 26 -10.316838 12.534766 9.233322 5 1 1.200
425 26 -13.378856 13.050314 4.367626 5 1 1.200
426 26 -11.119303 3.515676 -7.513373 5 1 1.200
427 26 -8.973919 20.950929 -4.242418 5 1 1.200
428 26 -4.790211 0.698964 2.006923 5 1 1.200
429 26 -9.256268 1.023894 3.691492 5 1 1.200
430 26 -2.223199 -1.040272 -0.488059 5 1 1.200
431 26 -14.767038 4.847963 -6.179403 5 1 1.200
432 26 -6.718737 14.757692 10.115273 5 1 1.200
433 26 -15.415552 1.285918 4.723617 5 1 1.200
434 26 -2.669170 2.178231 -7.865506 5 2 1.100
435 26 -2.076471 10.919646 -9.704936 5 2 1.100
436 26 -0.783160 17.676391 -3.810434 5 2 1.100
437 26 -2.183027 16.976485 4.932579 5 2 1.100
438 26 0.923189 11.594006 5.631261 5 2 1.100
439 26 -2.577425 13.608075 5.118070 5 2 1.100
440 26 1.005568 12.122272 2.528471 5 2 1.100
441 26 -0.556732 17.842067 2.627709 5 2 1.100
442 26 -1.284181 15.759169 7.467949 5 2 1.100
443 26 0.684176 16.735886 5.242469 5 2 1.100
444 26 0.828425 13.797418 7.196414 5 2 1.100
445 26 2.117745 14.567920 3.372600 5 2 1.100
446 26 -0.033583 15.246425 1.465560 5 2 1.100
447 26 -4.492716 13.162079 -3.458658 5 2 1.100
448 26 -6.632198 12.446395 -5.263941 5 2 1.100
449 26 -13.890558 11.625981 -6.503716 5 2 1.100
450 26 -8.558007 10.904843 10.593418 5 2 1.100
451 26 -7.525427 7.977203 13.707354 5 2 1.100
452 26 -6.149802 10.592766 13.296157 5 2 1.100
453 26 -4.016885 7.398477 7.621245 5 2 1.100
454 26 -1.467460 4.251415 -6.376221 5 2 1.100
455 26 0.136531 12.322808 -4.789651 5 2 1.100
456 26 -2.099298 15.418593 -8.427898 5 2 1.100
457 26 0.761692 8.506244 0.985577 5 2 1.100
458 26 -16.482719 9.713525 -9.261463 5 2 1.100
459 26 -3.197020 5.268055 -1.464921 5 2 1.100
460 26 -9.514224 5.072704 4.725757 5 2 1.100
461 26 -11.003987 2.523941 10.375135 5 2 1.100
462 26 -2.262574 10.454780 0.665692 5 2 1.100
463 26 -13.700817 11.212410 -11.696732 5 2 1.100
464 26 -12.766842 17.681511 -1.242236 5 2 1.100
465 26 -16.940128 16.338988 -2.606097 5 2 1.100
466 26 -6.075171 13.126951 12.293626 5 2 1.100
467 26 -12.164900 2.510823 0.950179 5 2 1.100
468 26 -8.597949 -1.326237 -4.610942 5 2 1.100
469 26 -18.403569 3.098944 -2.781849 5 2 1.100
470 26 -6.868628 20.492448 -6.224720 5 2 1.100
471 26 -11.687853 1.106711 8.072957 5 2 1.100
472 26 -9.682388 7.977046 7.449969 5 2 1.100
473 26 -3.693314 5.117589 9.569334 5 2 1.100
474 26 -4.010519 8.491121 13.136207 5 2 1.100
475 26 -12.020005 13.958455 -9.878657 5 2 1.100
476 26 -14.920503 3.045492 2.554082 5 2 1.100
477 26 -8.324351 -0.395542 -7.071224 5 2 1.100
478 26 -6.610348 7.392623 -6.527141 5 2 1.100
479 26 -1.833461 1.773472 5.757250 5 2 1.100
480 26 -3.897351 18.637089 0.082009 5 2 1.100
481 26 -12.061771 11.930344 -2.926763 5 2 1.100
482 26 -9.117832 12.948246 -2.746908 5 2 1.100
483 26 -9.220757 16.822560 -5.050540 5 2 1.100
484 26 -11.809711 12.576428 0.083382 5 2 1.100
485 26 -4.745326 13.309875 -0.607391 5 2 1.100
486 26 -6.825383 14.917081 -3.743106 5 2 1.100
487 26 -8.227873 13.727404 3.614463 5 2 1.100
488 26 -6.845631 18.634882 1.187411 5 2 1.100
489 26 -10.189324 17.746965 0.684867 5 2 1.100
490 26 -4.174120 16.315892 -2.343854 5 2 1.100
491 26 -9.153806 16.716619 3.033004 5 2 1.100
492 26 -3.478952 3.463409 -10.671472 5 2 1.100
493 26 -6.634794 6.820086 -9.740349 5 2 1.100
494 26 -3.268648 7.177232 -6.224309 5 2 1.100
495 26 -15.942197 6.345167 2.635571 5 2 1.100
496 26 -4.878711 11.098100 -10.569479 5 2 1.100
497 26 -14.863666 17.316198 6.029430 5 2 1.100
498 26 -6.935646 8.439617 6.642620 5 2 1.100
499 26 -8.859417 12.664285 -12.078210 5 2 1.100
500 26 -1.108614 4.728289 -9.152594 5 2 1.100
501 26 -6.430708 3.616827 -11.086632 5 2 1.100
502 26 -14.540908 2.265615 -7.758839 5 2 1.100
503 26 -18.944858 5.682811 4.902963 5 2 1.100
504 26 -4.901716 19.884465 5.327051 5 2 1.100
505 26 -3.088811 18.217268 -6.947334 5 2 1.100
506 26 -14.309282 2.883771 9.808657 5 2 1.100
507 26 -10.754119 15.666781 -1.770330 5 2 1.100
508 26 -9.994638 14.264752 1.613387 5 2 1.100
509 26 -6.148548 16.314165 2.480819 5 2 1.100
510 26 -11.970415 17.640009 -4.079075 5 2 1.100
511 26 -6.869994 16.995501 -1.046745 5 2 1.100
512 26 -13.773464 14.678034 8.258623 5 2 1.100
513 26 -5.603466 13.559788 2.370150 5 2 1.100
514 26 -9.213799 18.439785 -2.250798 5 2 1.100
515 26 -11.262333 15.983843 8.483400 5 2 1.100
516 26 -10.939564 -1.383742 -2.613863 5 2 1.100
517 26 -4.435952 9.822601 -7.709806 5 2 1.100
518 26 -12.448307 18.664459 6.955114 5 2 1.100
519 26 -20.369293 7.476150 0.659813 5 2 1.100
520 26 -8.613953 5.449477 12.490710 5 2 1.100
521 26 -2.250943 6.834580 11.312555 5 2 1.100
522 26 -9.100711 13.710769 11.732120 5 2 1.100
523 26 -6.660641 7.317411 11.056342 5 2 1.100
524 26 -17.809964 3.150677 3.879969 5 2 1.100
525 26 -17.785488 11.769237 3.022737 5 2 1.100
526 26 -17.125717 9.213448 1.498958 5 2 1.100
527 26 -16.006089 11.456452 -1.190075 5 2 1.100
528 26 -13.275547 14.501254 -2.326794 5 2 1.100
529 26 -9.324620 13.783042 -5.983614 5 2 1.100
530 26 -3.274947 11.380844 12.329242 5 2 1.100
531 26 -10.030179 10.243657 -1.822049 5 2 1.100
532 26 -3.648861 13.979526 10.634662 5 2 1.100
533 26 -12.719924 10.777508 5.345901 5 2 1.100
534 26 -6.303441 17.587211 -4.342574 5 2 1.100
535 26 -5.450854 19.359777 -2.258174 5 2 1.100
536 26 -8.264837 21.526631 2.878473 5 2 1.100
537 26 -11.813293 21.303309 -1.040648 5 2 1.100
538 26 -7.888330 18.220528 7.779954 5 2 1.100
539 26 -7.752726 15.713177 -10.143422 5 2 1.100
540 26 1.632708 7.733773 6.037820 5 2 1.100
541 26 -11.551324 -0.296368 -6.762465 5 2 1.100
542 26 -13.472657 9.018712 -10.147436 5 2 1.100
543 26 -15.788458 13.124083 -10.140172 5 2 1.100
544 26 -6.753524 21.991646 0.093412 5 2 1.100
545 26 -8.343308 1.910640 -5.232241 5 2 1.100
546 26 -16.871478 13.236731 -7.094708 5 2 1.100
547 26 -14.594755 8.906123 -1.455188 5 2 1.100
548 26 -14.222219 19.711026 1.933118 5 2 1.100
549 26 -19.821388 4.388150 0.850063 5 2 1.100
550 26 -10.624603 20.032151 5.315257 5 2 1.100
551 26 -6.648533 6.492269 -1.049659 5 2 1.100
552 26 -4.534984 9.311429 2.291272 5 2 1.100
553 26 -5.018088 17.998503 7.769953 5 2 1.100
554 26 -7.174679 -0.321210 -0.944334 5 2 1.100
555 26 -7.028216 4.854000 -7.867832 5 2 1.100
556 26 -7.811223 6.266941 -12.007156 5 2 1.100
557 26 0.024007 7.750008 -2.780345 5 2 1.100
558 26 -0.229399 6.917776 -7.090108 5 2 1.100
559 26 0.458242 4.975038 6.901822 5 2 1.100
560 26 -4.982474 6.789828 -2.921150 5 2 1.100
561 26 -11.291511 9.361722 9.515218 5 2 1.100
562 26 -4.854501 5.928200 -12.477866 5 2 1.100
563 26 -2.263155 6.237233 -11.384734 5 2 1.100
564 26 -1.422562 8.931782 3.082863 5 2 1.100
565 26 -10.546397 8.208608 12.384123 5 2 1.100
566 26 -1.576749 11.360126 10.077501 5 2 1.100
567 26 -10.232038 3.158572 -3.608628 5 2 1.100
568 26 -12.910386 0.353199 -1.598596 5 2 1.100
569 26 -4.051069 15.762738 0.616884 5 2 1.100
570 26 -0.152905 14.707805 -5.954532 5 2 1.100
571 26 -12.294838 6.017048 0.502784 5 2 1.100
572 26 -17.202747 2.795848 -0.391069 5 2 1.100
573 26 -11.399426 5.643432 -2.204626 5 2 1.100
574 26 -19.776372 5.870922 -3.842654 5 2 1.100
575 26 -12.477748 15.445883 1.414698 5 2 1.100
576 26 -6.749558 11.167116 -2.329587 5 2 1.100
577 26 -7.026292 9.410881 -9.253397 5 2 1.100
578 26 -14.435377 6.837752 9.722643 5 2 1.100
579 26 -5.901604 -0.689186 6.964866 5 2 1.100
580 26 -7.977592 3.186967 7.165997 5 2 1.100
581 26 -0.811978 8.218634 -9.712884 5 2 1.100
582 26 -10.315308 9.498874 -7.137113 5 2 1.100
583 26 -11.439428 3.162495 -10.871053 5 2 1.100
584 26 0.850431 13.261360 -2.132991 5 2 1.100
585 26 -10.781400 5.510495 -9.512858 5 2 1.100
586 26 -15.001169 11.987728 7.416717 5 2 1.100
587 26 0.724942 16.238533 -2.032278 5 2 1.100
588 26 -13.295396 2.815852 5.208228 5 2 1.100
589 26 -6.035125 -1.793661 3.978591 5 2 1.100
590 26 -0.582348 9.795751 -1.355884 5 2 1.100
591 26 -13.011775 6.014451 4.276439 5 2 1.100
592 26 -16.744072 6.180499 -1.483486 5 2 1.100
593 26 -1.484899 -0.344436 2.787059 5 2 1.100
594 26 -13.601337 0.479512 -4.421643 5 2 1.100
595 26 -3.133393 9.020395 -11.804420 5 2 1.100
596 26 -16.484950 3.308628 7.081728 5 2 1.100
597 26 -18.375474 11.183301 0.102117 5 2 1.100
598 26 -6.550049 3.962168 10.785043 5 2 1.100
599 26 -14.462002 4.586684 -9.828165 5 2 1.100
600 26 -12.187417 6.157289 -5.679063 5 2 1.100
601 26 -19.876403 8.300760 -2.174497 5 2 1.100
602 26 -14.079505 6.804826 -7.986222 5 2 1.100
603 26 -16.961132 4.805392 -8.270346 5 2 1.100
604 26 -16.212290 2.778163 -5.302908 5 2 1.100
605 26 -17.309611 6.645236 -6.239869 5 2 1.100
606 26 -15.568170 17.732819 3.529361 5 2 1.100
607 26 -5.306304 2.236930 -8.736754 5 2 1.100
608 26 -10.113264 19.720417 -6.898802 5 2 1.100
609 26 -13.003600 5.017114 11.019106 5 2 1.100
610 26 -3.272147 6.580772 3.327255 5 2 1.100
611 26 -5.978609 8.914100 -12.306773 5 2 1.100
612 26 -3.166613 8.993642 -2.490916 5 2 1.100
613 26 -7.371299 13.151211 7.951502 5 2 1.100
614 26 -0.983784 5.667742 1.474232 5 2 1.100
615 26 -6.655593 6.083814 8.479567 5 2 1.100
616 26 -15.178277 10.374456 3.335874 5 2 1.100
617 26 -6.712249 3.073922 -0.026937 5 2 1.100
618 26 -18.300058 8.235253 5.066790 5 2 1.100
619 26 -4.619660 4.251672 -6.388027 5 2 1.100
620 26 -9.963485 11.288856 2.086842 5 2 1.100
621 26 -7.367507 12.256610 0.594487 5 2 1.100
622 26 -10.387703 9.285573 -12.716861 5 2 1.100
623 26 -6.067562 6.960711 1.598440 5 2 1.100
624 26 -11.825443 11.178847 11.559070 5 2 1.100
625 26 -0.781353 5.041724 -2.578416 5 2 1.100
626 26 0.825633 5.903421 -0.350301 5 2 1.100
627 26 -8.404363 14.861240 -0.883839 5 3 2.400
628 26 -19.020410 5.458062 -1.289730 5 3 2.400
629 26 -3.205118 7.429519 0.241960 5 3 2.400
630 26 -9.741100 21.190065 0.443133 5 3 2.400
631 26 -14.269941 11.796614 -8.951790 5 3 2.400
632 26 -12.887094 3.923625 -0.884261 5 3 2.400
633 26 -8.430744 9.256902 0.246163 5 4 2.800
