Lupine sphere-grid knowledge graph
643 atoms
1254 bonds
6 atom types
1 bond types

-34.320699 35.679301 xlo xhi
-38.063878 31.250738 ylo yhi
-29.578886 27.327916 zlo zhi

Masses
24 51.996
26 55.845
27 58.933
28 58.693
29 63.546
30 65.380

Atoms # atomic
1 27 16.244889 -15.206641 1.903253
2 27 19.742264 -12.868337 2.794834
3 27 11.442692 -12.245652 8.658195
4 27 15.786096 -12.490530 16.808264
5 27 14.586146 -13.703189 4.895235
6 27 11.769268 -9.273928 6.176445
7 27 17.402115 -16.355966 12.950584
8 27 10.901744 -15.418723 7.000613
9 27 11.017721 -10.022379 11.627742
10 27 15.947351 -6.678025 8.800687
11 27 10.401164 -11.420119 16.631637
12 27 12.872144 -13.758580 16.627059
13 27 7.847539 -11.053994 11.899367
14 27 13.380501 -10.776919 17.327916
15 27 17.916870 -9.020834 6.436011
16 27 10.230953 -14.450443 15.246401
17 27 12.253241 -17.824253 11.453837
18 27 15.758905 -15.084482 10.419089
19 27 8.531855 -10.859432 9.173613
20 27 13.220244 -8.614260 13.364525
21 27 13.825049 -14.342624 7.877276
22 27 16.495384 -11.230447 4.935739
23 27 18.938207 -8.131789 13.930067
24 27 18.765576 -7.607947 9.224591
25 27 15.373742 -8.181452 11.456503
26 27 10.567726 -13.015446 11.678667
27 27 11.898976 -11.406353 14.257627
28 27 11.801457 -6.406715 10.764199
29 27 18.272914 -13.808341 14.905118
30 27 9.016587 -9.357957 14.342014
31 27 18.148092 -10.903583 15.605657
32 27 16.168628 -13.384158 13.229768
33 27 16.271269 -6.382056 14.206669
34 27 13.119170 -6.845268 7.990346
35 27 15.344295 -17.961708 9.951227
36 27 20.776814 -12.337582 10.127192
37 27 13.002074 -9.082231 9.439492
38 27 18.403457 -16.372486 10.014398
39 27 9.057247 -8.101689 11.335567
40 27 20.139051 -10.143829 8.437392
41 27 14.164584 -11.160710 7.214450
42 27 14.020285 -8.015860 16.584526
43 27 14.952824 -10.721108 14.614807
44 27 14.768432 -17.241725 12.846897
45 27 10.142951 -8.457664 8.489918
46 27 16.742558 -9.842083 8.990814
47 27 13.416459 -10.913046 4.380596
48 27 16.671583 -12.993390 7.995497
49 27 17.796205 -6.369794 11.666383
50 27 9.823031 -11.513519 6.448374
51 27 11.200628 -8.420068 16.084754
52 27 17.261896 -10.067171 12.550665
53 27 19.149664 -11.988503 6.576516
54 27 19.591058 -14.469783 8.216807
55 27 17.972249 -12.333707 10.591796
56 27 20.001444 -11.471523 13.242575
57 27 16.652768 -8.598996 16.124428
58 27 8.034103 -14.192008 11.672467
59 27 13.417957 -5.895858 14.489316
60 27 10.757917 -6.759527 13.530504
61 27 9.981714 -16.151951 12.825375
62 27 12.474314 -16.561266 14.656627
63 27 8.508941 -12.429825 14.360391
64 27 11.701445 -13.371772 5.240984
65 27 12.513784 -15.075830 10.485616
66 27 8.761775 -13.773291 8.636720
67 27 15.370572 -15.355060 15.489471
68 27 14.123260 -16.464512 6.036266
69 27 13.129410 -14.113463 13.435857
70 27 14.467827 -5.460448 11.551033
71 27 16.702992 -16.800608 7.605891
72 27 20.147933 -9.158835 11.334010
73 27 12.770909 -17.528381 8.412854
74 27 19.567813 -14.393826 12.045401
75 27 15.031047 -8.469001 6.098192
76 27 9.877142 -16.341369 9.738416
77 27 17.410507 -14.697472 5.866532
78 27 14.101287 -11.688511 11.253811
79 27 14.414075 -11.879049 10.537427
80 24 12.821855 2.256997 2.740923
81 24 16.100488 4.498394 -12.755903
82 24 23.796477 6.773844 -7.972182
83 24 19.806813 2.732467 0.518614
84 24 21.541956 2.509259 -1.384562
85 24 22.389210 1.463659 1.360143
86 24 12.428351 14.453349 -8.048548
87 24 25.115795 6.361907 -1.250551
88 24 14.268434 13.010022 -11.367188
89 24 12.012936 11.455318 -6.932171
90 24 21.682358 -1.015405 -3.772968
91 24 16.410825 14.713001 -0.577391
92 24 15.903353 15.960406 -6.532115
93 24 23.310946 5.441928 3.493099
94 24 16.455740 16.355755 1.706166
95 24 16.640870 10.830358 -11.964871
96 24 24.826276 2.477791 -3.896930
97 24 14.403346 5.897394 -5.510576
98 24 18.723224 16.365145 -0.205452
99 24 18.987317 11.940505 -10.476003
100 24 14.279775 8.749354 -1.273512
101 24 18.651808 7.436841 0.978378
102 24 15.244304 12.057018 -8.505745
103 24 16.786440 2.659965 -2.641091
104 24 12.290878 9.121889 -9.321347
105 24 18.330024 6.963389 -7.714766
106 24 16.206514 10.139686 1.101781
107 24 14.019559 -0.119151 -5.306855
108 24 13.657046 9.942255 -11.916715
109 24 17.885076 1.133952 1.856214
110 24 19.967653 0.300212 -8.938224
111 24 12.752457 5.694882 -3.685659
112 24 11.766590 3.971280 -1.221830
113 24 11.330217 6.367599 -6.771736
114 24 12.650762 2.579076 -3.331265
115 24 10.735002 4.144186 -4.957241
116 24 10.996476 6.725933 -1.928494
117 24 22.609380 11.921779 -7.884114
118 24 21.820320 1.425682 -6.631542
119 24 15.073618 13.602810 5.504520
120 24 16.899918 17.023510 -2.712103
121 24 16.258844 4.591754 3.586473
122 24 13.833692 11.038554 2.443554
123 24 12.524408 4.064433 -8.960905
124 24 15.184838 9.162575 -9.628656
125 24 20.416787 2.518052 3.246628
126 24 15.312821 -0.149976 -7.863014
127 24 15.085163 0.066857 -1.914079
128 24 23.320281 8.774311 3.321555
129 24 18.688223 5.679495 -4.470908
130 24 14.686392 6.742963 0.738716
131 24 17.452348 10.812852 -2.281540
132 24 19.933102 13.445237 4.766391
133 24 12.039232 11.960863 -9.891599
134 24 24.948245 9.839331 -7.368052
135 24 19.481706 2.664989 -6.753508
136 24 14.457668 2.591287 -6.665066
137 24 13.877876 1.728359 -9.461226
138 24 22.471519 9.154878 -9.316116
139 24 14.345488 5.335635 5.841021
140 24 13.970954 11.553082 -2.442346
141 24 25.679301 7.788224 -5.071762
142 24 11.457473 12.186292 -2.174468
143 24 23.927939 12.160942 -4.932355
144 24 14.607487 17.112481 -1.127410
145 24 22.222000 14.052653 -0.835346
146 24 16.945922 12.971511 -6.378459
147 24 17.180234 9.622932 5.773209
148 24 24.738845 9.379326 0.233982
149 24 17.011534 13.928991 -10.647610
150 24 24.436782 10.075823 -3.303801
151 24 18.432826 14.669279 -8.223348
152 24 22.896652 9.173892 -5.787384
153 24 19.854680 8.275660 5.874914
154 24 18.746957 7.821535 -10.671315
155 24 17.358990 4.017983 6.073676
156 24 23.177385 7.000135 0.814304
157 24 25.567476 7.068836 2.033824
158 24 15.243384 7.944148 7.442059
159 24 17.736118 10.730863 -8.223962
160 24 20.949765 11.449133 -0.387452
161 24 20.089821 12.616297 -3.573153
162 24 17.040668 6.839864 4.964971
163 24 18.317902 0.167767 -6.461312
164 24 13.889089 13.777408 -5.925205
165 24 14.203651 8.123294 4.704340
166 24 18.019828 7.002482 7.830853
167 24 23.209540 6.760919 -4.490890
168 24 16.299715 5.871320 -8.965253
169 24 19.937170 5.348382 5.817832
170 24 14.743910 10.052457 -6.525868
171 24 20.473887 15.625433 -3.235301
172 24 18.079454 2.557937 -8.936897
173 24 16.202277 4.632739 -0.577504
174 24 19.903005 5.569620 -1.680211
175 24 20.432645 8.712308 -1.560234
176 24 13.803821 14.811953 0.548674
177 24 23.269145 12.313582 0.785142
178 24 21.243881 14.559081 -5.455739
179 24 12.786637 14.464509 -2.883437
180 24 11.464242 8.240278 -4.491451
181 24 20.731474 10.049905 -6.227283
182 24 21.596060 3.059408 -9.189883
183 24 17.522435 0.199799 -3.034115
184 24 11.962926 1.288830 -7.154375
185 24 14.946325 15.386785 -9.080816
186 24 24.417438 4.310021 0.599575
187 24 19.784769 -0.084636 -0.112545
188 24 17.361164 11.896790 2.266093
189 24 17.217048 13.200563 -2.902497
190 24 14.920950 2.410100 0.449090
191 24 12.396632 6.340325 2.212503
192 24 11.948331 9.677182 0.159433
193 24 20.703695 5.212531 -5.796771
194 24 20.518422 6.183191 -9.918036
195 24 20.166080 7.167775 2.711902
196 24 20.326135 15.253109 3.041735
197 24 13.886843 11.753245 6.461841
198 24 19.675916 -2.128879 -4.454429
199 24 15.839644 2.105306 -12.155768
200 24 25.030742 3.309857 -6.082648
201 24 18.733761 3.915546 -12.589869
202 24 16.784946 6.709269 -13.623894
203 24 13.554926 5.299533 -12.588054
204 24 21.801698 12.213989 3.780202
205 24 13.488610 14.553533 3.981593
206 24 20.529433 11.721372 6.526825
207 24 23.594105 0.476718 -3.353505
208 24 17.510934 13.961355 5.537445
209 24 17.657055 7.611019 -1.915591
210 24 17.733981 7.915618 -3.100493
211 29 -17.721878 -12.693842 -9.264165
212 29 -15.179804 -11.657274 7.347849
213 29 -20.825368 -16.117916 4.238583
214 29 -18.805570 -19.554786 0.248708
215 29 -22.539777 -11.051128 -1.816730
216 29 -20.990602 -18.547049 4.192922
217 29 -14.687908 -14.116063 -8.937304
218 29 -14.664455 -14.789627 2.840352
219 29 -13.445287 -17.358215 -1.507835
220 29 -16.377588 -10.330708 1.143198
221 29 -16.460547 -13.088111 -6.317253
222 29 -14.779900 -15.269896 5.631586
223 29 -21.297662 -18.090608 -1.191575
224 29 -23.660940 -10.529380 1.921306
225 29 -17.031060 -20.750207 -1.915138
226 29 -21.641826 -8.795337 2.107756
227 29 -19.985545 -19.976986 -3.120478
228 29 -20.326499 -14.707645 1.521409
229 29 -24.034089 -12.685728 3.510330
230 29 -19.917131 -9.259216 4.257205
231 29 -23.158145 -13.498967 0.483405
232 29 -20.532487 -13.092375 6.815944
233 29 -20.301411 -11.408438 0.558814
234 29 -19.635958 -15.709058 -2.419080
235 29 -22.542399 -14.061739 5.493655
236 29 -17.371040 -9.952019 -7.714608
237 29 -12.158580 -16.548970 7.003888
238 29 -16.314784 -10.233503 -4.652155
239 29 -14.874951 -16.748535 8.330218
240 29 -13.479263 -19.801928 -0.097711
241 29 -17.684842 -9.387956 -1.352979
242 29 -11.995683 -17.270671 -3.529505
243 29 -14.536161 -9.560005 -0.962077
244 29 -11.374751 -14.928277 -1.345877
245 29 -17.982404 -8.123780 1.127579
246 29 -15.318262 -19.190952 -3.722880
247 29 -22.503200 -10.432966 5.327709
248 29 -23.867199 -13.252205 -2.980932
249 29 -22.993687 -10.897952 -4.663445
250 29 -13.833785 -10.734266 -5.834350
251 29 -17.873436 -16.456021 7.426254
252 29 -17.480151 -15.604867 -8.526897
253 29 -13.178864 -13.751577 8.196792
254 29 -18.688383 -12.749098 -4.272909
255 29 -16.410591 -13.979899 8.908510
256 29 -18.070099 -20.767431 2.215060
257 29 -14.811632 -11.287367 -8.445557
258 29 -17.113742 -16.769792 4.143172
259 29 -14.087384 -16.045656 -6.789625
260 29 -16.312461 -18.754508 6.079106
261 29 -16.593755 -15.606177 -5.672816
262 29 -16.867980 -13.759808 6.059809
263 29 -12.849866 -12.569107 -3.968825
264 29 -11.689800 -13.999347 2.952909
265 29 -15.437614 -13.621563 -3.580304
266 29 -13.456880 -18.805452 5.490796
267 29 -21.751155 -16.767657 -3.994443
268 29 -19.505894 -10.566878 6.603993
269 29 -21.509707 -8.581164 -2.834223
270 29 -17.184705 -19.283235 -5.657310
271 29 -23.161968 -15.526535 2.257245
272 29 -19.781939 -17.943160 -5.704101
273 29 -18.431360 -12.366768 3.618274
274 29 -24.320699 -9.401388 -1.763860
275 29 -19.920230 -14.381117 -6.806976
276 29 -14.642843 -18.017191 3.163555
277 29 -16.750714 -17.455695 -0.787479
278 29 -11.378171 -17.419219 0.189259
279 29 -15.976398 -9.389807 3.776996
280 29 -19.124355 -10.120514 -5.589245
281 29 -11.744568 -16.761231 3.944127
282 29 -12.640102 -13.550253 -6.551599
283 29 -13.391750 -12.298391 5.127387
284 29 -20.111197 -11.876906 -7.666471
285 29 -11.181399 -14.028291 5.762511
286 29 -13.957318 -12.136052 0.048410
287 29 -13.393119 -10.286002 2.021355
288 29 -18.083533 -17.880101 -3.042854
289 29 -20.855678 -12.336409 3.176391
290 29 -17.413084 -14.139975 -0.002546
291 28 2.901474 -24.866993 -6.530671
292 28 -1.339775 -27.367972 -1.691956
293 28 -2.724696 -24.185118 -1.402090
294 28 2.264508 -24.497371 -0.696351
295 28 1.116622 -28.063878 -3.805937
296 28 -0.501120 -19.321518 0.060064
297 28 5.427162 -24.359487 -7.706119
298 28 2.428105 -25.169458 -9.430021
299 28 4.375424 -26.580905 -5.326275
300 28 4.699079 -23.239513 -5.071856
301 28 -4.000406 -22.074770 -2.103451
302 28 5.157340 -19.748987 -4.078612
303 28 0.448234 -18.142019 -9.923744
304 28 1.477411 -27.010913 -7.370557
305 28 -3.549859 -27.910281 -1.849024
306 28 3.264560 -22.593615 -8.269944
307 28 2.966552 -18.733631 -4.857192
308 28 0.295578 -20.608656 -7.878839
309 28 -3.044789 -24.118623 1.288711
310 28 0.762132 -21.284307 -10.878782
311 28 4.260662 -19.310381 -7.113505
312 28 -5.151476 -24.841725 -1.296745
313 28 -1.913475 -20.122668 -9.262721
314 28 -4.564323 -24.401161 -6.762675
315 28 0.625570 -18.554693 -2.612682
316 28 -1.218026 -24.391110 -11.103750
317 28 -4.972735 -24.260825 -10.013043
318 28 -2.133079 -26.353466 -8.810599
319 28 2.280233 -16.902903 -6.374214
320 28 -2.719575 -17.634315 -10.232851
321 28 -4.215288 -20.825196 -10.817103
322 28 -5.138550 -26.523358 -5.809851
323 28 -1.475060 -26.636644 -5.060641
324 28 2.545923 -26.974146 -0.286419
325 28 4.799291 -25.094622 -1.719053
326 28 -1.886946 -17.624317 -7.311634
327 28 -2.749034 -20.634410 -6.417688
328 28 -2.794660 -19.842108 0.518810
329 28 -0.237622 -20.659431 2.205852
330 28 -4.729969 -19.669135 -8.034182
331 28 2.669912 -18.617565 -1.238925
332 28 2.786617 -23.246517 1.628761
333 28 0.407541 -25.226086 1.558184
334 28 -0.111157 -16.478433 -3.650098
335 28 4.200732 -22.335158 -1.176363
336 28 -1.565492 -20.282936 -12.138555
337 28 0.798625 -22.576007 -1.143165
338 28 -2.034305 -18.737962 -3.125468
339 28 -5.920009 -23.104482 -5.291591
340 28 0.211401 -25.666514 -3.240370
341 28 -2.767637 -23.763651 -9.033421
342 28 -0.205306 -22.565491 -4.913142
343 30 13.493534 -12.259035 -12.632479
344 30 8.013341 -11.779728 -16.480697
345 30 12.451373 -14.549289 -13.387259
346 30 10.547030 -17.659353 -16.134210
347 30 10.702167 -12.402060 -19.578886
348 30 10.688234 -16.241411 -19.502272
349 30 13.204718 -16.247203 -17.183547
350 30 7.896604 -15.509107 -14.950377
351 30 12.247094 -11.493151 -16.614635
352 30 7.975506 -14.233783 -19.392860
353 30 7.416371 -11.624583 -13.916154
354 30 10.755765 -18.976139 -14.272852
355 30 5.545057 -12.736855 -16.697692
356 30 15.051538 -14.280460 -14.296730
357 30 13.935414 -16.690422 -12.611950
358 30 13.375653 -13.460822 -18.275229
359 30 9.475442 -9.634282 -15.917446
360 30 7.762659 -16.649794 -17.668115
361 30 7.471327 -10.460741 -18.593971
362 30 11.096065 -16.074296 -11.571394
363 30 10.620793 -13.090992 -11.795082
364 30 10.430162 -14.605918 -17.409492
365 30 10.457187 -14.046846 -15.659264
366 26 -2.510913 6.101986 -0.212610
367 26 -10.734749 0.080882 -5.932621
368 26 -5.364301 4.747583 -1.156873
369 26 -0.744933 2.343732 5.346782
370 26 -10.538631 7.854062 -10.095425
371 26 -9.883832 5.376398 -9.276804
372 26 -10.417018 13.678806 8.970649
373 26 -7.439245 9.766250 13.673939
374 26 -8.256112 7.425094 -4.820225
375 26 -10.357702 1.858341 10.976702
376 26 -2.736161 4.236341 -2.391213
377 26 -8.154045 9.470438 10.496068
378 26 -4.087953 2.289669 0.753241
379 26 -20.117776 11.305464 0.129166
380 26 -6.512655 4.948038 8.685993
381 26 -8.080182 15.396401 -11.164370
382 26 -0.066469 13.276617 0.146433
383 26 -5.103832 4.332561 12.985061
384 26 -5.757999 6.294286 11.042260
385 26 -1.436292 10.232708 2.420821
386 26 -3.283015 4.764980 -8.867293
387 26 -14.070582 6.041212 2.255326
388 26 -1.791112 3.698788 1.318375
389 26 -10.441054 4.296121 13.053726
390 26 -8.188215 15.718307 7.344572
391 26 -7.526724 6.126679 14.095452
392 26 -7.547421 1.192300 10.653255
393 26 -5.582834 2.972112 10.573691
394 26 -8.232332 -0.191876 -2.326238
395 26 -4.083471 8.250598 -11.119232
396 26 -7.252605 7.877609 7.771890
397 26 -9.413052 11.314164 -12.379308
398 26 0.048617 3.880814 -2.256827
399 26 -3.320304 12.575689 -2.226827
400 26 -9.568115 8.029461 13.917061
401 26 -1.925364 16.846703 -2.996979
402 26 -18.162568 9.269086 -0.743426
403 26 -14.603116 11.557629 -6.972563
404 26 -13.806620 2.122410 2.995776
405 26 -7.216232 12.393524 -2.078753
406 26 -12.482499 9.137728 12.150927
407 26 -8.235759 18.161986 0.825801
408 26 -17.495068 8.045795 -6.712779
409 26 -8.494610 18.485625 -6.566197
410 26 -8.209148 12.850596 -10.374355
411 26 -16.600932 11.841079 0.153966
412 26 -7.947243 3.269181 12.844338
413 26 -16.895516 6.754502 5.955509
414 26 -12.199170 -0.221338 -3.866452
415 26 0.561047 5.484607 0.281610
416 26 -10.596651 8.123956 9.970890
417 26 0.385092 2.109338 0.122715
418 26 -16.064833 16.285222 1.695833
419 26 -4.027877 3.842086 -11.264056
420 26 -18.161196 7.102253 1.715984
421 26 -5.508868 8.849910 9.747428
422 26 -12.820199 3.380532 11.039516
423 26 -8.232426 -0.443551 2.746883
424 26 -2.829292 7.187428 8.500398
425 26 -11.300028 5.017366 -11.672352
426 26 -1.332367 6.652158 2.504547
427 26 -3.483485 11.022057 0.425552
428 26 -10.679421 15.045368 -5.193626
429 26 -13.592547 17.623729 -4.623526
430 26 -8.757548 6.271301 11.071941
431 26 -13.383105 6.113107 11.071392
432 26 -10.061964 10.619087 12.418771
433 26 -15.914246 5.679478 -5.528391
434 26 -6.083584 0.808080 -0.569416
435 26 -16.767694 10.495273 -3.121088
436 26 -6.519377 18.801656 8.082718
437 26 -12.579915 15.786836 9.185422
438 26 1.728340 15.226617 1.153752
439 26 -4.680840 18.895010 2.031087
440 26 -10.029268 20.186415 -1.128348
441 26 -9.250342 17.306767 -1.525920
442 26 -10.737952 19.814798 1.717949
443 26 -7.438512 20.488891 2.673704
444 26 -6.948458 19.655718 -2.446699
445 26 -5.033681 19.903605 -0.361018
446 26 -7.562817 21.250738 0.098881
447 26 -10.411868 16.287467 0.710629
448 26 -6.152830 16.655435 0.187888
449 26 -4.689666 14.768897 -5.862696
450 26 -6.505335 8.936695 -6.662874
451 26 -10.846495 2.977438 -6.291842
452 26 -4.631193 5.810762 4.026259
453 26 -7.269536 -1.824255 0.387054
454 26 -2.149472 -0.945482 3.943636
455 26 -1.341398 -0.472455 0.945066
456 26 -10.155462 15.187209 11.134760
457 26 -0.942310 16.203530 1.379141
458 26 -3.900177 1.781160 -8.843004
459 26 -12.819112 12.433452 3.278935
460 26 -8.240426 -0.226603 -8.521485
461 26 -13.187072 12.288235 6.880557
462 26 -16.303993 4.188722 1.183895
463 26 -13.041785 10.953183 -9.277482
464 26 -16.161616 12.424347 7.346365
465 26 -12.998823 3.206320 -9.580111
466 26 0.619684 12.708025 -4.199922
467 26 -10.790627 13.749199 -10.775622
468 26 -2.954076 0.671018 6.310308
469 26 -12.443107 7.496450 -1.625098
470 26 -13.507815 -0.445820 4.131693
471 26 -0.303141 16.304409 8.272705
472 26 -11.804796 19.425951 -4.815308
473 26 -13.409790 13.248341 -5.697965
474 26 -0.038993 1.321195 2.836272
475 26 -7.370258 5.565805 0.391491
476 26 -3.330706 2.494730 3.563728
477 26 -7.704304 2.387685 -7.704261
478 26 -20.464039 8.352005 1.642297
479 26 -11.419066 0.092808 5.798049
480 26 -4.919461 19.128398 5.610480
481 26 -11.221391 4.372641 9.211295
482 26 -3.163518 9.560999 -8.428790
483 26 -1.929086 14.095912 -8.901772
484 26 -8.131518 10.463868 -4.479518
485 26 -4.437547 13.507327 -9.727418
486 26 -2.434588 11.451161 -10.689842
487 26 -5.824672 9.366113 -2.765278
488 26 -1.917891 13.855403 -4.102807
489 26 -4.517848 16.150450 -8.380199
490 26 -0.227009 14.371989 -6.625831
491 26 -2.535011 7.118082 -6.931946
492 26 -5.447675 11.018973 -11.111502
493 26 -6.307410 8.080317 -9.314041
494 26 -4.533193 14.035122 6.937938
495 26 -10.204718 17.962217 4.814783
496 26 -12.009002 18.261833 6.824162
497 26 -20.355918 7.967836 -1.959422
498 26 -4.758634 15.815390 4.669482
499 26 -15.497511 17.768687 3.908818
500 26 -7.469758 1.356427 4.729215
501 26 -6.587403 2.327490 2.122883
502 26 -5.445244 -1.756919 -2.303646
503 26 -9.174490 0.925213 0.073188
504 26 -13.144186 7.067651 -11.826847
505 26 -4.069454 17.075622 7.231314
506 26 -7.387256 14.371248 3.785220
507 26 -14.690647 3.109399 -3.766063
508 26 -15.813317 8.953622 0.356996
509 26 -4.371199 -0.067318 2.563852
510 26 -3.348974 1.374133 -1.721903
511 26 -5.401437 3.188504 -3.696514
512 26 0.462683 17.391649 -2.204839
513 26 -1.204121 3.173946 -8.826151
514 26 -14.322743 13.777796 -8.820033
515 26 -5.674069 11.266428 -8.208908
516 26 -1.474648 11.792114 -6.376088
517 26 -0.217978 10.416275 -2.746177
518 26 -2.900835 9.731598 -2.708588
519 26 -0.652143 8.004425 -3.960988
520 26 -9.961523 5.758809 -3.427898
521 26 -5.317986 6.393453 -6.728217
522 26 -6.669099 14.272901 -7.664863
523 26 -10.418978 7.120045 -6.172513
524 26 -12.486729 0.036978 1.430406
525 26 -7.216777 14.603754 11.528386
526 26 -14.320310 18.108745 1.490887
527 26 1.871866 13.979003 6.127081
528 26 -7.971832 3.100984 -1.941423
529 26 -3.378555 -0.286842 -4.416285
530 26 0.723705 4.492541 3.222632
531 26 -0.477636 0.776687 -2.361139
532 26 -18.645797 12.483610 -2.170265
533 26 -1.258290 6.181533 11.185219
534 26 -2.412244 9.072188 6.897597
535 26 -1.129886 8.735559 10.469148
536 26 -4.944760 14.970165 -3.185641
537 26 -8.549447 10.809461 -7.823903
538 26 -5.006611 2.881477 5.584025
539 26 -0.199197 11.183887 -8.691312
540 26 -5.532671 -0.485722 5.957470
541 26 -4.338941 10.496371 3.128496
542 26 -3.895774 7.916581 -4.619967
543 26 0.640754 9.952615 -5.877223
544 26 -16.533917 15.902765 -3.773865
545 26 -13.476008 14.759755 -1.537075
546 26 -1.547960 18.881886 -0.664689
547 26 -9.341346 12.823422 -0.765132
548 26 -18.394812 6.022166 7.777700
549 26 -11.923358 2.937413 4.449341
550 26 -7.738332 2.767337 -10.863538
551 26 -12.602074 0.776675 -8.075249
552 26 -14.116709 19.045067 -1.656307
553 26 -15.847480 2.518052 5.392007
554 26 -10.232035 1.257892 -11.054780
555 26 -2.209693 3.864618 9.508882
556 26 -17.672664 16.011064 -0.166372
557 26 -1.236105 14.413586 10.459570
558 26 -16.638782 15.404432 4.589929
559 26 -9.527594 10.040690 5.657288
560 26 -15.838727 9.414344 5.280663
561 26 -2.690908 19.318074 -3.863171
562 26 -8.872641 2.678241 8.663391
563 26 -5.069324 13.907083 9.740497
564 26 -7.857544 17.197655 10.221179
565 26 -16.817704 9.735307 8.045516
566 26 -7.253383 17.258883 5.001664
567 26 -18.602509 4.903318 4.893993
568 26 -14.234419 9.259436 8.756636
569 26 -4.806667 6.454880 1.499115
570 26 -9.221769 13.468338 6.033875
571 26 -8.710316 19.619076 6.521984
572 26 -13.334970 6.824255 4.863393
573 26 -2.010614 2.279360 -4.484397
574 26 -7.176597 4.661746 3.481462
575 26 -16.469301 1.340399 2.758793
576 26 -14.652895 1.111732 0.065654
577 26 -5.436819 12.199192 -4.427383
578 26 1.630593 11.464398 2.573626
579 26 -12.782645 11.085106 -1.714346
580 26 -1.010078 11.907964 10.162063
581 26 -12.601977 9.883478 -4.696689
582 26 -0.234661 16.133487 5.610025
583 26 0.011658 7.173093 -6.538092
584 26 -0.991458 8.218592 -9.425110
585 26 -12.039499 15.567636 6.336865
586 26 -16.858579 12.913778 -6.535493
587 26 -4.815656 7.487396 13.414193
588 26 -13.271112 4.547898 0.072782
589 26 -5.058610 16.736349 9.855662
590 26 -5.430797 7.175440 -13.043896
591 26 -8.730932 16.912385 -4.576420
592 26 -0.613214 13.770853 2.836550
593 26 -10.394844 16.479670 -7.643012
594 26 -4.377055 13.168329 1.567902
595 26 1.931149 11.523771 -0.096073
596 26 -19.418862 5.586105 -0.512349
597 26 -11.808438 6.606130 13.235046
598 26 -14.613433 6.526958 7.766731
599 26 -17.046005 6.831949 -1.872101
600 26 -2.017778 4.931713 4.668650
601 26 -9.036818 3.507242 1.152235
602 26 1.637692 11.517829 8.825823
603 26 -9.164407 5.633487 7.910349
604 26 -13.962544 1.337285 6.789199
605 26 -10.151307 17.779452 8.870124
606 26 -19.441772 9.977223 -3.795646
607 26 0.431508 7.718929 7.463040
608 26 -2.458223 -1.390138 -1.550239
609 26 -18.600680 5.525803 -5.433680
610 26 -17.385029 3.377287 -3.600125
611 26 0.199048 11.432014 6.263229
612 26 -16.412326 5.616467 -8.602516
613 26 -14.559172 7.440382 -7.557783
614 26 -13.551245 5.260097 -5.377859
615 26 -16.191005 3.038236 -6.674468
616 26 -18.200206 14.662174 2.528126
617 26 -7.564106 13.108958 8.823016
618 26 -13.598138 17.162285 -7.111973
619 26 -15.988179 10.815576 -9.178715
620 26 -10.392353 7.700358 3.965029
621 26 -10.283618 15.229905 4.000054
622 26 -10.705244 10.566095 2.830661
623 26 -5.892631 -2.004620 3.630815
624 26 -15.298529 11.950826 4.588460
625 26 -6.074515 0.566281 -4.158356
626 26 -0.066729 5.341057 8.485141
627 26 -5.207592 10.047727 12.283516
628 26 -18.855462 10.516149 2.704274
629 26 -6.392014 12.413349 5.992193
630 26 -2.549270 16.297536 -6.340716
631 26 -7.947395 13.028663 -5.544403
632 26 -9.592065 6.405300 -13.062190
633 26 -14.087622 11.795466 9.601917
634 26 -4.147113 -2.183357 0.788587
635 26 -13.403215 9.411180 3.002565
636 26 -11.821538 7.583611 6.858380
637 26 -3.763259 10.956097 -5.945826
638 26 0.013545 13.659918 7.948363
639 26 -12.401280 9.952009 5.955172
640 26 -14.864360 16.701899 -1.940674
641 26 -10.219992 2.370805 -8.872569
642 26 -13.994330 8.939693 -2.952630
643 26 -8.241939 9.098481 0.593050

Bonds
1 1 1 79
2 1 2 79
3 1 3 78
4 1 3 79
5 1 4 78
6 1 4 79
7 1 5 78
8 1 5 79
9 1 6 78
10 1 6 79
11 1 7 78
12 1 7 79
13 1 8 78
14 1 8 79
15 1 9 78
16 1 9 79
17 1 10 78
18 1 10 79
19 1 11 78
20 1 11 79
21 1 12 78
22 1 12 79
23 1 13 78
24 1 13 79
25 1 14 78
26 1 14 79
27 1 15 78
28 1 15 79
29 1 16 78
30 1 16 79
31 1 17 78
32 1 17 79
33 1 18 78
34 1 18 79
35 1 19 78
36 1 19 79
37 1 20 78
38 1 20 79
39 1 21 78
40 1 21 79
41 1 22 78
42 1 22 79
43 1 23 78
44 1 23 79
45 1 24 78
46 1 24 79
47 1 25 78
48 1 25 79
49 1 26 78
50 1 26 79
51 1 27 78
52 1 27 79
53 1 28 78
54 1 28 79
55 1 29 78
56 1 29 79
57 1 30 78
58 1 30 79
59 1 31 78
60 1 31 79
61 1 32 78
62 1 32 79
63 1 33 78
64 1 33 79
65 1 34 78
66 1 34 79
67 1 35 78
68 1 35 79
69 1 36 78
70 1 36 79
71 1 37 78
72 1 37 79
73 1 38 78
74 1 38 79
75 1 39 78
76 1 39 79
77 1 40 78
78 1 40 79
79 1 41 78
80 1 41 79
81 1 42 78
82 1 42 79
83 1 43 78
84 1 43 79
85 1 44 78
86 1 44 79
87 1 45 78
88 1 45 79
89 1 46 78
90 1 46 79
91 1 47 78
92 1 47 79
93 1 48 78
94 1 48 79
95 1 49 78
96 1 49 79
97 1 50 78
98 1 50 79
99 1 51 78
100 1 51 79
101 1 52 78
102 1 52 79
103 1 53 78
104 1 53 79
105 1 54 78
106 1 54 79
107 1 55 78
108 1 55 79
109 1 56 78
110 1 56 79
111 1 57 78
112 1 57 79
113 1 58 78
114 1 58 79
115 1 59 78
116 1 59 79
117 1 60 78
118 1 60 79
119 1 61 78
120 1 61 79
121 1 62 78
122 1 62 79
123 1 63 78
124 1 63 79
125 1 64 78
126 1 64 79
127 1 65 78
128 1 65 79
129 1 66 78
130 1 66 79
131 1 67 78
132 1 67 79
133 1 68 78
134 1 68 79
135 1 69 78
136 1 69 79
137 1 70 78
138 1 70 79
139 1 71 78
140 1 71 79
141 1 72 78
142 1 72 79
143 1 73 78
144 1 73 79
145 1 74 78
146 1 74 79
147 1 75 78
148 1 75 79
149 1 76 78
150 1 76 79
151 1 77 78
152 1 77 79
153 1 78 79
154 1 80 210
155 1 81 210
156 1 90 207
157 1 90 210
158 1 96 207
159 1 96 210
160 1 119 208
161 1 119 210
162 1 132 208
163 1 132 210
164 1 83 209
165 1 83 210
166 1 84 83
167 1 84 210
168 1 85 83
169 1 85 210
170 1 109 83
171 1 109 210
172 1 125 83
173 1 125 210
174 1 91 209
175 1 91 210
176 1 94 91
177 1 94 210
178 1 98 91
179 1 98 210
180 1 120 91
181 1 120 210
182 1 144 91
183 1 144 210
184 1 100 209
185 1 100 210
186 1 101 209
187 1 101 210
188 1 102 209
189 1 102 210
190 1 86 102
191 1 86 210
192 1 88 102
193 1 88 210
194 1 89 102
195 1 89 210
196 1 92 102
197 1 92 210
198 1 95 102
199 1 95 210
200 1 99 102
201 1 99 210
202 1 104 102
203 1 104 210
204 1 108 102
205 1 108 210
206 1 124 102
207 1 124 210
208 1 133 102
209 1 133 210
210 1 146 102
211 1 146 210
212 1 149 102
213 1 149 210
214 1 151 102
215 1 151 210
216 1 159 102
217 1 159 210
218 1 164 102
219 1 164 210
220 1 170 102
221 1 170 210
222 1 103 209
223 1 103 210
224 1 127 103
225 1 127 210
226 1 105 209
227 1 105 210
228 1 154 105
229 1 154 210
230 1 168 105
231 1 168 210
232 1 106 209
233 1 106 210
234 1 122 106
235 1 122 210
236 1 111 209
237 1 111 210
238 1 97 111
239 1 97 210
240 1 112 111
241 1 112 210
242 1 113 111
243 1 113 210
244 1 114 111
245 1 114 210
246 1 115 111
247 1 115 210
248 1 116 111
249 1 116 210
250 1 129 209
251 1 129 210
252 1 130 209
253 1 130 210
254 1 131 209
255 1 131 210
256 1 135 209
257 1 135 210
258 1 110 135
259 1 110 210
260 1 118 135
261 1 118 210
262 1 163 135
263 1 163 210
264 1 172 135
265 1 172 210
266 1 136 209
267 1 136 210
268 1 107 136
269 1 107 210
270 1 123 136
271 1 123 210
272 1 126 136
273 1 126 210
274 1 137 136
275 1 137 210
276 1 140 209
277 1 140 210
278 1 142 140
279 1 142 210
280 1 152 209
281 1 152 210
282 1 82 152
283 1 82 210
284 1 117 152
285 1 117 210
286 1 134 152
287 1 134 210
288 1 138 152
289 1 138 210
290 1 141 152
291 1 141 210
292 1 143 152
293 1 143 210
294 1 150 152
295 1 150 210
296 1 167 152
297 1 167 210
298 1 156 209
299 1 156 210
300 1 87 156
301 1 87 210
302 1 93 156
303 1 93 210
304 1 128 156
305 1 128 210
306 1 148 156
307 1 148 210
308 1 157 156
309 1 157 210
310 1 160 209
311 1 160 210
312 1 145 160
313 1 145 210
314 1 161 209
315 1 161 210
316 1 171 161
317 1 171 210
318 1 162 209
319 1 162 210
320 1 121 162
321 1 121 210
322 1 139 162
323 1 139 210
324 1 147 162
325 1 147 210
326 1 153 162
327 1 153 210
328 1 155 162
329 1 155 210
330 1 158 162
331 1 158 210
332 1 165 162
333 1 165 210
334 1 166 162
335 1 166 210
336 1 169 162
337 1 169 210
338 1 173 209
339 1 173 210
340 1 199 81
341 1 199 210
342 1 201 81
343 1 201 210
344 1 202 81
345 1 202 210
346 1 203 81
347 1 203 210
348 1 198 90
349 1 198 210
350 1 200 96
351 1 200 210
352 1 197 119
353 1 197 210
354 1 205 119
355 1 205 210
356 1 196 132
357 1 196 210
358 1 204 132
359 1 204 210
360 1 206 132
361 1 206 210
362 1 174 209
363 1 174 210
364 1 175 209
365 1 175 210
366 1 187 83
367 1 187 210
368 1 176 91
369 1 176 210
370 1 195 101
371 1 195 210
372 1 192 100
373 1 192 210
374 1 185 102
375 1 185 210
376 1 183 103
377 1 183 210
378 1 194 105
379 1 194 210
380 1 188 106
381 1 188 210
382 1 180 111
383 1 180 210
384 1 193 129
385 1 193 210
386 1 191 130
387 1 191 210
388 1 189 131
389 1 189 210
390 1 182 135
391 1 182 210
392 1 184 136
393 1 184 210
394 1 179 140
395 1 179 210
396 1 181 152
397 1 181 210
398 1 186 156
399 1 186 210
400 1 177 160
401 1 177 210
402 1 178 161
403 1 178 210
404 1 190 173
405 1 190 210
406 1 207 210
407 1 208 210
408 1 209 210
409 1 213 289
410 1 213 290
411 1 216 213
412 1 216 290
413 1 215 289
414 1 215 290
415 1 220 289
416 1 220 290
417 1 222 289
418 1 222 290
419 1 212 222
420 1 212 290
421 1 218 222
422 1 218 290
423 1 214 288
424 1 214 290
425 1 219 288
426 1 219 290
427 1 221 288
428 1 221 290
429 1 211 221
430 1 211 290
431 1 217 221
432 1 217 290
433 1 224 289
434 1 224 290
435 1 226 289
436 1 226 290
437 1 228 289
438 1 228 290
439 1 229 289
440 1 229 290
441 1 230 289
442 1 230 290
443 1 231 289
444 1 231 290
445 1 232 289
446 1 232 290
447 1 233 289
448 1 233 290
449 1 235 289
450 1 235 290
451 1 247 289
452 1 247 290
453 1 248 215
454 1 248 290
455 1 249 215
456 1 249 290
457 1 269 215
458 1 269 290
459 1 274 215
460 1 274 290
461 1 268 289
462 1 268 290
463 1 271 289
464 1 271 290
465 1 273 289
466 1 273 290
467 1 241 220
468 1 241 290
469 1 243 220
470 1 243 290
471 1 245 220
472 1 245 290