ITEM: TIMESTEP
0
ITEM: NUMBER OF ATOMS
450
ITEM: BOX BOUNDS pp pp pp
-14.0000 14.0000
-8.5000 7.0000
-14.0000 14.0000
ITEM: ATOMS id type x y z
1 8 6.8393 0.4712 -1.2600
2 1 7.3228 1.2692 -1.4736
3 1 7.1697 0.2138 -0.3993
4 8 -3.8341 -5.3999 -0.5811
5 1 -4.0488 -4.5090 -0.8574
6 1 -2.9199 -5.3505 -0.3019
7 8 9.5153 1.5541 0.5823
8 1 8.9569 0.8197 0.8376
9 1 10.3133 1.4390 1.0983
10 8 3.0711 1.5652 -7.5746
11 1 3.4899 0.8511 -8.0551
12 1 3.2181 2.3389 -8.1187
13 8 9.7294 -3.1352 -4.4388
14 1 10.3963 -3.3480 -3.7858
15 1 9.1875 -3.9223 -4.4933
16 8 1.2489 -3.2293 -7.9617
17 1 1.0442 -4.1536 -7.8206
18 1 1.7864 -3.2210 -8.7537
19 8 6.5232 -2.5812 0.2086
20 1 6.4361 -1.7196 0.6162
21 1 6.4005 -3.2003 0.9283
22 8 7.4676 -3.9167 5.9067
23 1 6.8709 -3.9170 6.6551
24 1 8.1273 -3.2589 6.1265
25 8 -2.3739 0.0381 9.4116
26 1 -3.1697 0.0186 9.9432
27 1 -1.7218 -0.4230 9.9393
28 8 -3.8147 -2.3882 4.6265
29 1 -4.5065 -3.0482 4.6722
30 1 -3.1476 -2.7789 4.0622
31 8 4.1142 3.7369 8.8619
32 1 4.7271 3.0215 9.0318
33 1 4.6159 4.5310 9.0459
34 8 -4.7858 -4.3954 6.6766
35 1 -4.8284 -3.4800 6.4000
36 1 -5.5465 -4.8058 6.2654
37 8 1.1861 -4.6100 0.3303
38 1 1.9295 -5.2112 0.3773
39 1 1.4083 -3.9061 0.9397
40 8 7.0931 -1.2379 4.2118
41 1 6.4244 -1.9161 4.1159
42 1 7.5910 -1.5001 4.9861
43 8 -2.4103 -4.0584 -10.7479
44 1 -2.8212 -4.8847 -11.0019
45 1 -3.1422 -3.4526 -10.6315
46 8 -3.3793 -1.8256 -7.5934
47 1 -3.7752 -1.0517 -7.1926
48 1 -2.9600 -1.4958 -8.3881
49 8 -5.1965 -3.1527 -5.0983
50 1 -5.7545 -2.4384 -4.7909
51 1 -4.3310 -2.9508 -4.7428
52 8 0.5218 0.6206 2.8210
53 1 -0.0763 -0.1213 2.9103
54 1 0.9195 0.5053 1.9580
55 8 -1.6492 3.4645 4.9669
56 1 -1.0193 3.6658 5.6590
57 1 -2.1569 2.7298 5.3112
58 8 4.2035 -2.2420 -2.2609
59 1 3.4215 -2.7411 -2.0251
60 1 4.3876 -1.7063 -1.4893
61 8 -7.7137 1.3140 8.1721
62 1 -8.2147 1.8834 7.5882
63 1 -7.8554 1.6812 9.0446
64 8 -7.8945 -2.5428 -2.9579
65 1 -7.3132 -1.8364 -3.2395
66 1 -8.3347 -2.8250 -3.7596
67 8 -2.2667 -2.3148 -0.5661
68 1 -1.7379 -2.4109 0.2260
69 1 -3.0607 -1.8687 -0.2716
70 8 6.2325 1.4912 2.9193
71 1 6.4136 1.1516 2.0428
72 1 7.0861 1.5044 3.3522
73 8 0.3688 -1.7667 -5.8770
74 1 -0.3743 -2.3307 -6.0915
75 1 0.6713 -2.0825 -5.0256
76 8 -6.8534 3.1862 0.5351
77 1 -7.2988 2.6076 1.1540
78 1 -6.1451 2.6525 0.1752
79 8 10.4613 -0.2277 2.3512
80 1 10.8606 -0.8253 1.7189
81 1 9.5575 -0.1304 2.0513
82 8 8.6117 -4.7567 0.4407
83 1 8.8775 -4.8275 1.3575
84 1 9.2731 -5.2545 -0.0398
85 8 10.1570 3.5218 3.6051
86 1 10.1820 2.7631 3.0221
87 1 10.6575 3.2496 4.3743
88 8 6.1736 -2.7393 -3.4004
89 1 5.7455 -2.7598 -4.2563
90 1 5.4871 -2.4577 -2.7957
91 8 1.3478 -5.3116 6.1233
92 1 2.0564 -5.1378 6.7430
93 1 1.6407 -4.9097 5.3055
94 8 4.8001 -1.5056 5.1942
95 1 4.4543 -2.3954 5.1243
96 1 4.0558 -0.9818 5.4907
97 8 3.7322 -3.9230 8.5454
98 1 3.6444 -4.8206 8.8660
99 1 2.8385 -3.6575 8.3285
100 8 -4.8918 1.8088 0.2187
101 1 -5.0881 1.8600 -0.7168
102 1 -5.2625 0.9709 0.4958
103 8 8.8814 -0.7999 -2.0924
104 1 8.3857 -1.1484 -1.3514
105 1 9.6774 -0.4407 -1.7007
106 8 -4.5380 3.3629 -3.2604
107 1 -5.2167 2.8661 -2.8035
108 1 -3.7169 2.9525 -2.9892
109 8 -1.8597 4.0062 -7.6359
110 1 -2.6855 4.4503 -7.8288
111 1 -2.0737 3.0741 -7.6760
112 8 2.7456 -2.7847 2.7350
113 1 3.3446 -2.4432 3.3990
114 1 2.2426 -2.0215 2.4509
115 8 -3.0090 0.5128 -2.9123
116 1 -2.8636 1.4135 -2.6228
117 1 -3.6778 0.1747 -2.3168
118 8 -4.0669 3.4730 6.2156
119 1 -4.0582 3.8021 5.3167
120 1 -3.1848 3.6479 6.5434
121 8 -7.2023 -2.3572 1.6412
122 1 -8.1048 -2.5367 1.3777
123 1 -7.1112 -1.4084 1.5535
124 8 -10.1104 -2.7927 3.1652
125 1 -9.2672 -2.3456 3.2394
126 1 -10.7368 -2.1911 3.5676
127 8 1.2190 -0.4100 -9.8606
128 1 0.9812 0.1807 -9.1459
129 1 0.9167 0.0368 -10.6514
130 8 0.6763 -1.1019 10.0024
131 1 1.4881 -1.5730 10.1901
132 1 0.4117 -1.4154 9.1375
133 8 0.1062 2.0110 -0.9499
134 1 -0.4349 1.3214 -0.5653
135 1 -0.1343 2.0156 -1.8764
136 8 2.8558 -3.2897 5.5050
137 1 2.4732 -4.1390 5.2844
138 1 2.2584 -2.9194 6.1549
139 8 -7.9092 1.1297 -4.5525
140 1 -7.7475 0.1946 -4.6781
141 1 -8.7745 1.2767 -4.9345
142 8 7.1456 2.7659 -6.7459
143 1 6.6885 3.2301 -6.0446
144 1 8.0214 3.1520 -6.7577
145 8 -9.8299 2.2685 3.9234
146 1 -10.7643 2.0622 3.9458
147 1 -9.6629 2.7143 4.7538
148 8 2.2086 1.7807 5.5803
149 1 2.5411 1.0629 6.1192
150 1 1.2649 1.6276 5.5330
151 8 -9.6632 -3.4727 -1.8091
152 1 -10.3412 -2.8096 -1.9394
153 1 -9.9013 -3.9005 -0.9866
154 8 -4.4169 -5.4398 -4.7063
155 1 -4.6522 -4.5127 -4.6683
156 1 -4.7857 -5.7469 -5.5345
157 8 -6.7542 -0.9823 5.7231
158 1 -5.8975 -0.5980 5.5368
159 1 -7.2143 -0.9601 4.8840
160 8 0.7628 -4.6323 -3.5003
161 1 0.7125 -3.8640 -2.9315
162 1 1.4943 -5.1414 -3.1512
163 8 4.2621 -0.1967 0.4847
164 1 5.0674 -0.6927 0.6321
165 1 3.9313 -0.5204 -0.3531
166 8 2.1037 -0.8409 6.5655
167 1 2.2288 -1.5367 5.9201
168 1 1.2878 -0.4146 6.3032
169 8 -9.8137 -5.2818 4.1370
170 1 -9.4780 -4.4461 3.8128
171 1 -10.1066 -5.7435 3.3513
172 8 -8.1612 -4.3639 -4.6722
173 1 -7.2503 -4.6349 -4.7862
174 1 -8.1339 -3.4080 -4.7141
175 8 -6.6829 -4.0537 -8.2503
176 1 -6.2520 -3.2704 -8.5922
177 1 -7.3893 -4.2293 -8.8720
178 8 6.9568 1.9503 6.9904
179 1 6.9697 2.4873 7.7826
180 1 7.8260 2.0676 6.6070
181 8 0.6184 -4.2134 3.9148
182 1 -0.0843 -4.8580 3.8311
183 1 0.3312 -3.6363 4.6224
184 8 -1.6677 3.6902 1.2604
185 1 -1.6138 4.4226 0.6465
186 1 -0.9902 3.8730 1.9115
187 8 -9.7130 1.1323 0.8943
188 1 -9.1656 1.3536 1.6477
189 1 -10.3058 0.4548 1.2196
190 8 -7.1919 0.2378 3.6645
191 1 -7.8608 -0.3799 3.9601
192 1 -7.1676 0.1279 2.7140
193 8 -5.6629 -4.9616 -2.1585
194 1 -6.1678 -4.9749 -2.9715
195 1 -4.7648 -4.7828 -2.4370
196 8 -2.2668 -5.0117 6.6424
197 1 -2.3684 -4.9920 5.6908
198 1 -1.7097 -5.7722 6.8082
199 8 3.9029 3.7037 -3.7050
200 1 3.8392 2.9872 -4.3364
201 1 4.7912 3.6363 -3.3548
202 8 -3.5145 1.0051 -7.9226
203 1 -4.3920 0.8738 -7.5637
204 1 -3.2763 0.1542 -8.2906
205 8 7.9219 -2.5535 -7.2086
206 1 7.4877 -3.0571 -6.5201
207 1 8.5097 -3.1806 -7.6298
208 8 8.7842 0.9004 4.1376
209 1 8.1218 1.5305 4.4213
210 1 9.5341 1.0677 4.7084
211 8 1.2586 1.8084 -3.6717
212 1 2.0667 1.2968 -3.6330
213 1 0.5732 1.1614 -3.8387
214 8 0.4801 -1.5351 0.0053
215 1 0.2994 -0.6281 -0.2417
216 1 -0.3512 -1.8593 0.3518
217 8 -0.8831 2.5975 8.8502
218 1 -1.3856 3.3004 9.2620
219 1 0.0091 2.7184 9.1753
220 8 -7.0678 0.3940 -0.7121
221 1 -7.9024 0.2419 -0.2688
222 1 -6.4938 0.7419 -0.0296
223 8 4.5178 -1.3170 -6.2698
224 1 3.6986 -1.7792 -6.4472
225 1 4.9404 -1.2411 -7.1253
226 8 4.7397 -5.6056 -6.1874
227 1 4.0349 -5.2876 -6.7517
228 1 5.2840 -6.1426 -6.7632
229 8 -3.3779 -3.4708 2.0686
230 1 -4.2144 -3.0099 2.1334
231 1 -3.2301 -3.5680 1.1279
232 8 -7.6933 -4.2905 5.9152
233 1 -7.3864 -4.6033 5.0641
234 1 -8.0286 -3.4111 5.7407
235 8 -2.8256 -0.1127 0.2878
236 1 -3.4652 -0.6852 -0.1357
237 1 -2.4305 -0.6572 0.9687
238 8 5.8973 -2.6130 -8.7002
239 1 5.0323 -2.2032 -8.6967
240 1 6.2707 -2.3774 -9.5495
241 8 -5.4973 -1.3182 -0.8584
242 1 -5.0147 -0.9184 -0.1348
243 1 -5.4030 -0.6977 -1.5812
244 8 7.4217 -2.3122 7.7058
245 1 6.6216 -2.4030 8.2233
246 1 7.9613 -1.6987 8.2044
247 8 4.0518 -4.9557 -2.2568
248 1 4.7261 -5.6346 -2.2834
249 1 3.2312 -5.4369 -2.1503
250 8 -6.8269 2.0384 -6.7872
251 1 -7.1773 1.5328 -7.5205
252 1 -7.1979 2.9135 -6.9005
253 8 4.9291 0.3022 8.0153
254 1 4.0258 -0.0091 7.9562
255 1 4.9098 0.9637 8.7068
256 8 -7.1454 2.7524 3.0923
257 1 -7.7097 2.2966 2.4678
258 1 -6.4372 3.1113 2.5577
259 8 -5.9975 3.0795 5.7958
260 1 -5.2899 2.5271 5.4636
261 1 -6.3816 3.4736 5.0126
262 8 -3.8799 1.9923 8.6445
263 1 -4.5310 2.4842 9.1449
264 1 -3.2282 2.6461 8.3914
265 8 6.3670 4.0429 5.2541
266 1 5.4486 3.8456 5.4383
267 1 6.5587 3.5616 4.4492
268 8 6.7827 -5.3512 -7.4229
269 1 7.0512 -5.9051 -6.6898
270 1 7.1238 -5.7974 -8.1980
271 8 -0.6666 -4.6076 -7.0551
272 1 -0.8345 -4.1608 -7.8848
273 1 -0.2685 -5.4407 -7.3078
274 8 1.1421 3.7518 3.5126
275 1 2.0070 3.3796 3.6845
276 1 0.6099 3.0049 3.2385
277 8 -4.2518 1.8431 2.6835
278 1 -5.1072 2.1952 2.4374
279 1 -3.8942 2.4873 3.2944
280 8 7.9931 3.3555 2.0716
281 1 7.8132 3.3441 1.1316
282 1 8.3562 2.4894 2.2567
283 8 5.9672 -4.6057 2.3662
284 1 6.3743 -5.4169 2.6703
285 1 5.4373 -4.8707 1.6144
286 8 3.2297 3.6211 3.0865
287 1 2.6305 3.7065 3.8281
288 1 2.6631 3.6539 2.3157
289 8 -4.0017 -3.9862 10.1836
290 1 -4.8364 -4.0371 10.6494
291 1 -3.3392 -4.0769 10.8685
292 8 -2.5729 -1.7942 -3.9099
293 1 -2.3732 -1.9212 -4.8374
294 1 -2.9895 -0.9333 -3.8702
295 8 4.7020 0.0677 -9.9331
296 1 5.4933 -0.4225 -9.7101
297 1 4.9934 0.7132 -10.5771
298 8 -10.1913 -0.6482 -2.5183
299 1 -9.9361 -1.5705 -2.4986
300 1 -11.0336 -0.6423 -2.9730
301 8 2.4468 3.5496 10.6769
302 1 2.9746 4.3363 10.8138
303 1 3.0868 2.8575 10.5108
304 8 0.3721 -2.0388 6.9162
305 1 0.1861 -1.1103 6.7764
306 1 0.4776 -2.1220 7.8639
307 8 -8.2718 -0.9551 -6.8517
308 1 -7.7752 -0.1630 -7.0573
309 1 -8.8614 -1.0685 -7.5973
310 8 -1.2003 2.6731 -5.1846
311 1 -1.2628 3.3832 -5.8235
312 1 -1.7018 2.9841 -4.4309
313 8 1.3014 -3.8873 9.3750
314 1 1.9743 -4.1714 9.9937
315 1 1.0787 -2.9992 9.6542
316 8 -5.4034 -0.5642 9.8751
317 1 -5.4817 0.3678 9.6713
318 1 -6.2249 -0.7833 10.3147
319 8 -0.7595 0.9308 5.8775
320 1 -0.5263 0.0242 6.0775
321 1 -1.0312 1.2994 6.7180
322 8 2.3065 -3.8138 -10.9254
323 1 2.3595 -4.1266 -10.0223
324 1 1.7397 -3.0439 -10.8796
325 8 2.2385 4.0358 -2.2809
326 1 3.1098 4.1379 -2.6637
327 1 2.2060 4.6886 -1.5815
328 8 7.2137 3.1893 0.0563
329 1 6.4840 2.9297 0.6188
330 1 7.7164 2.3847 -0.0707
331 8 -5.4189 -5.1096 3.2555
332 1 -5.9704 -4.3280 3.2895
333 1 -5.8272 -5.7181 3.8713
334 8 6.1330 -5.1190 7.7047
335 1 5.2748 -5.0167 7.2932
336 1 6.0706 -5.9433 8.1873
337 8 4.7596 -5.3086 -9.2330
338 1 4.5593 -5.3295 -8.2972
339 1 5.2480 -4.4945 -9.3554
340 8 10.9207 -3.2605 1.9700
341 1 11.6720 -2.9660 1.4552
342 1 10.4307 -2.4601 2.1586
343 8 -8.9729 4.1619 0.7609
344 1 -9.8678 4.4809 0.6450
345 1 -8.4557 4.9514 0.9203
346 8 8.6795 0.7755 -6.1234
347 1 9.5966 0.5545 -6.2855
348 1 8.2117 -0.0535 -6.2247
349 8 7.5752 -5.1612 -2.5229
350 1 7.7281 -5.2133 -1.5794
351 1 7.0935 -4.3428 -2.6428
352 8 6.7399 -0.0182 -3.8337
353 1 5.9282 0.1509 -4.3122
354 1 7.1061 0.8506 -3.6684
355 8 -9.8897 -5.2689 1.1990
356 1 -9.3566 -4.4997 0.9979
357 1 -9.5228 -5.9642 0.6530
358 8 4.7721 4.0414 -8.3019
359 1 5.5214 4.5826 -8.0532
360 1 4.9371 3.8090 -9.2157
361 8 8.9756 3.7199 -3.2748
362 1 8.9072 3.1145 -4.0130
363 1 8.0759 4.0040 -3.1136
364 8 4.4284 1.0780 -3.3984
365 1 3.6540 0.5156 -3.4128
366 1 5.1114 0.5355 -3.0042
367 8 -6.9956 3.4050 -2.8466
368 1 -6.1153 3.6443 -3.1365
369 1 -7.4717 4.2348 -2.8157
370 8 -1.6956 -2.4275 9.5220
371 1 -2.1022 -1.7104 10.0086
372 1 -0.9257 -2.0329 9.1124
373 8 -4.4184 0.8875 6.0361
374 1 -3.8403 0.3725 5.4733
375 1 -4.3554 0.4667 6.8936
376 8 8.1303 -5.3282 2.9223
377 1 8.2162 -4.7916 3.7103
378 1 8.1538 -6.2299 3.2426
379 8 -0.9869 -4.9851 -0.4224
380 1 -0.0399 -4.8729 -0.5053
381 1 -1.3385 -4.6798 -1.2587
382 8 -0.7364 -2.0906 2.5873
383 1 -1.0371 -2.4919 1.7719
384 1 -1.1202 -1.2137 2.5786
385 8 -1.1749 0.2102 -7.6548
386 1 -0.4460 -0.0681 -8.2093
387 1 -1.4915 1.0165 -8.0620
388 8 4.3944 2.7049 -0.4523
389 1 4.5656 3.6119 -0.1986
390 1 3.7685 2.3880 0.1987
391 8 0.7875 -2.0405 -2.9732
392 1 0.9064 -2.9490 -2.6963
393 1 0.0514 -2.0707 -3.5844
394 8 -6.1489 -0.3116 -7.9574
395 1 -6.4896 0.1367 -8.7314
396 1 -5.3680 0.1867 -7.7162
397 8 1.0694 3.9503 -6.3118
398 1 1.8623 3.6245 -6.7378
399 1 1.2271 3.8161 -5.3772
400 8 -10.4225 -1.8275 0.3862
401 1 -9.9126 -2.6326 0.4756
402 1 -10.5213 -1.5056 1.2823
403 8 -9.7140 4.0463 -1.8111
404 1 -10.4871 3.4835 -1.7699
405 1 -9.3356 3.8710 -2.6727
406 8 1.1381 2.3672 -9.7678
407 1 0.4580 2.8806 -9.3318
408 1 1.8688 2.9767 -9.8718
409 8 -6.2129 3.9627 9.8062
410 1 -6.8036 4.6204 9.4390
411 1 -5.7087 4.4361 10.4679
412 8 -4.5216 3.7606 -6.5035
413 1 -4.2837 3.0737 -7.1262
414 1 -3.7109 4.2505 -6.3658
415 8 -1.6362 -5.5390 -3.7822
416 1 -2.2351 -6.2386 -4.0431
417 1 -2.0954 -5.0803 -3.0787
418 8 2.1190 1.4571 8.8157
419 1 1.4313 1.8449 9.3570
420 1 1.9025 1.7271 7.9233
421 8 -1.5070 -0.6972 -9.9270
422 1 -2.0798 -0.1642 -9.3756
423 1 -0.7655 -0.1253 -10.1255
424 8 10.6178 -5.6971 -1.7159
425 1 9.7985 -5.9413 -1.2853
426 1 11.1850 -6.4596 -1.6017
427 8 3.4658 -3.0437 -4.6474
428 1 2.9682 -2.5276 -5.2817
429 1 4.3063 -2.5910 -4.5768
430 8 -4.9671 -1.7660 1.9367
431 1 -5.3927 -2.6177 2.0354
432 1 -5.6896 -1.1495 1.8177
433 8 6.8645 0.2778 -8.3217
434 1 7.2323 -0.4318 -8.8484
435 1 7.1027 0.0564 -7.4215
436 8 3.1519 -1.4927 10.3799
437 1 2.6077 -1.1600 9.6662
438 1 3.7162 -2.1461 9.9664
439 8 -1.0994 0.0985 -3.5642
440 1 -0.4328 -0.2590 -4.1508
441 1 -1.3936 -0.6529 -3.0494
442 8 6.6974 2.3903 -3.4301
443 1 7.2658 2.1411 -2.7014
444 1 6.6408 1.6020 -3.9703
445 8 -1.8437 2.9419 -10.1946
446 1 -0.9290 2.8199 -10.4489
447 1 -2.0741 3.8060 -10.5359
448 8 -9.1088 3.6909 -5.3291
449 1 -9.0526 2.8560 -5.7939
450 1 -9.6179 3.4936 -4.5429
ITEM: TIMESTEP
1
ITEM: NUMBER OF ATOMS
450
ITEM: BOX BOUNDS pp pp pp
-14.0000 14.0000
-8.5000 7.0000
-14.0000 14.0000
ITEM: ATOMS id type x y z
1 8 6.8890 0.4734 -1.2103
2 1 7.3769 1.2708 -1.4160
3 1 7.2140 0.2090 -0.3497
4 8 -3.8550 -5.3702 -0.6235
5 1 -4.0821 -4.4832 -0.9029
6 1 -2.9407 -5.3077 -0.3474
7 8 9.5449 1.5782 0.7408
8 1 8.9643 0.8545 0.9760
9 1 10.3302 1.4372 1.2696
10 8 3.2101 1.5422 -7.5088
11 1 3.6361 0.8459 -8.0087
12 1 3.3436 2.3309 -8.0346
13 8 9.8264 -3.1441 -4.2673
14 1 10.4953 -3.3521 -3.6150
15 1 9.2875 -3.9336 -4.3181
16 8 1.4078 -3.2526 -7.9519
17 1 1.1917 -4.1714 -7.7931
18 1 1.9435 -3.2659 -8.7450
19 8 6.5510 -2.5590 0.2432
20 1 6.4601 -1.7083 0.6727
21 1 6.4315 -3.1967 0.9470
22 8 7.3847 -3.9034 6.0168
23 1 6.7731 -3.9232 6.7529
24 1 8.0313 -3.2409 6.2603
25 8 -2.4750 0.0459 9.4130
26 1 -3.2919 0.0490 9.9119
27 1 -1.8544 -0.4213 9.9723
28 8 -3.8747 -2.4235 4.5380
29 1 -4.5379 -3.1135 4.5527
30 1 -3.1793 -2.7714 3.9798
31 8 4.0498 3.7112 8.8855
32 1 4.6260 2.9632 9.0428
33 1 4.5912 4.4760 9.0810
34 8 -4.8963 -4.4053 6.6426
35 1 -4.9209 -3.4859 6.3773
36 1 -5.6623 -4.7965 6.2226
37 8 1.1652 -4.5904 0.4073
38 1 1.8996 -5.2034 0.4409
39 1 1.4045 -3.8958 1.0209
40 8 7.0719 -1.2496 4.2795
41 1 6.4101 -1.9364 4.1989
42 1 7.5808 -1.4966 5.0517
43 8 -2.2895 -4.0689 -10.8066
44 1 -2.6673 -4.9103 -11.0625
45 1 -3.0442 -3.4901 -10.6991
46 8 -3.1930 -1.8153 -7.6505
47 1 -3.5974 -1.0560 -7.2309
48 1 -2.7817 -1.4623 -8.4395
49 8 -5.1075 -3.1719 -5.1898
50 1 -5.6890 -2.4704 -4.8966
51 1 -4.2536 -2.9451 -4.8215
52 8 0.5209 0.6380 2.7843
53 1 -0.0713 -0.1108 2.8539
54 1 0.9301 0.5408 1.9245
55 8 -1.6546 3.4724 4.9396
56 1 -1.0161 3.6907 5.6186
57 1 -2.1496 2.7383 5.3032
58 8 4.2708 -2.2363 -2.2185
59 1 3.4888 -2.7225 -1.9572
60 1 4.4775 -1.6896 -1.4605
61 8 -7.7994 1.3348 8.0323
62 1 -8.3063 1.9154 7.4646
63 1 -7.9292 1.6873 8.9127
64 8 -7.8467 -2.5135 -3.0881
65 1 -7.2626 -1.8061 -3.3613
66 1 -8.2824 -2.7894 -3.8945
67 8 -2.2088 -2.3209 -0.6182
68 1 -1.6993 -2.4048 0.1877
69 1 -3.0120 -1.8754 -0.3487
70 8 6.1897 1.4940 3.0299
71 1 6.3974 1.1524 2.1601
72 1 7.0312 1.5172 3.4855
73 8 0.4466 -1.7339 -5.8967
74 1 -0.2887 -2.3231 -6.0651
75 1 0.7869 -2.0123 -5.0464
76 8 -6.8145 3.1908 0.4759
77 1 -7.2582 2.6102 1.0942
78 1 -6.1054 2.6590 0.1144
79 8 10.5016 -0.2302 2.4666
80 1 10.8529 -0.8298 1.8083
81 1 9.5891 -0.0993 2.2089
82 8 8.6076 -4.7765 0.5872
83 1 8.9074 -4.8714 1.4913
84 1 9.2481 -5.2646 0.0698
85 8 10.1777 3.4847 3.7341
86 1 10.2055 2.7235 3.1544
87 1 10.6775 3.2169 4.5053
88 8 6.2500 -2.7548 -3.2628
89 1 5.8252 -2.7765 -4.1203
90 1 5.5610 -2.4730 -2.6611
91 8 1.2844 -5.3228 6.1404
92 1 1.9960 -5.1459 6.7556
93 1 1.5720 -4.9227 5.3198
94 8 4.7106 -1.5365 5.2848
95 1 4.3895 -2.4348 5.2066
96 1 3.9509 -1.0354 5.5813
97 8 3.6346 -3.8980 8.6132
98 1 3.5936 -4.7967 8.9403
99 1 2.7262 -3.6752 8.4101
100 8 -4.8625 1.7846 0.1396
101 1 -5.0466 1.8597 -0.7967
102 1 -5.2414 0.9425 0.3915
103 8 8.9159 -0.8081 -1.9554
104 1 8.3976 -1.1657 -1.2345
105 1 9.7014 -0.4579 -1.5351
106 8 -4.4608 3.3910 -3.3072
107 1 -5.1296 2.8862 -2.8445
108 1 -3.6327 2.9896 -3.0440
109 8 -1.6871 3.9986 -7.6434
110 1 -2.5116 4.4451 -7.8360
111 1 -1.9038 3.0671 -7.6841
112 8 2.7045 -2.8147 2.8170
113 1 3.2931 -2.4490 3.4773
114 1 2.1880 -2.0672 2.5159
115 8 -2.9296 0.4936 -2.9374
116 1 -2.7600 1.3980 -2.6738
117 1 -3.5988 0.1871 -2.3255
118 8 -4.1226 3.4512 6.1626
119 1 -4.1623 3.7657 5.2595
120 1 -3.2291 3.6463 6.4453
121 8 -7.1859 -2.3466 1.4824
122 1 -8.0947 -2.4750 1.2106
123 1 -7.0455 -1.4025 1.4109
124 8 -10.1464 -2.7939 2.9916
125 1 -9.3074 -2.3397 3.0700
126 1 -10.7797 -2.1984 3.3922
127 8 1.3339 -0.4099 -9.8310
128 1 1.0881 0.1939 -9.1301
129 1 1.0387 0.0210 -10.6331
130 8 0.5216 -1.1059 9.9918
131 1 1.3320 -1.5858 10.1625
132 1 0.2417 -1.4079 9.1278
133 8 0.1722 2.0012 -0.9383
134 1 -0.3892 1.3032 -0.6009
135 1 -0.0342 2.0445 -1.8720
136 8 2.7997 -3.2620 5.4990
137 1 2.4128 -4.1102 5.2821
138 1 2.2057 -2.8869 6.1492
139 8 -7.8169 1.1289 -4.6712
140 1 -7.6572 0.1936 -4.7977
141 1 -8.6820 1.2781 -5.0525
142 8 7.3133 2.7747 -6.6111
143 1 6.8790 3.2535 -5.9052
144 1 8.1958 3.1440 -6.6436
145 8 -9.7927 2.2576 3.7266
146 1 -10.7234 2.0345 3.7129
147 1 -9.6643 2.6990 4.5662
148 8 2.1373 1.7899 5.6576
149 1 2.5006 1.0845 6.1931
150 1 1.1976 1.6096 5.6294
151 8 -9.6220 -3.4884 -1.9308
152 1 -10.2896 -2.8191 -2.0806
153 1 -9.8782 -3.9024 -1.1067
154 8 -4.3410 -5.4700 -4.7193
155 1 -4.5779 -4.5432 -4.6845
156 1 -4.7084 -5.7803 -5.5469
157 8 -6.8015 -0.9677 5.6023
158 1 -5.9412 -0.5853 5.4297
159 1 -7.2502 -0.9395 4.7573
160 8 0.7782 -4.6104 -3.5156
161 1 0.6943 -3.8281 -2.9704
162 1 1.5152 -5.0891 -3.1361
163 8 4.2654 -0.1935 0.5567
164 1 5.0617 -0.7152 0.6566
165 1 3.8924 -0.4826 -0.2760
166 8 2.0308 -0.8342 6.6258
167 1 2.1395 -1.5246 5.9717
168 1 1.2167 -0.3957 6.3783
169 8 -9.9243 -5.2907 4.0084
170 1 -9.5882 -4.4544 3.6860
171 1 -10.2166 -5.7508 3.2216
172 8 -8.1006 -4.3362 -4.7841
173 1 -7.2040 -4.6527 -4.8943
174 1 -8.0260 -3.3831 -4.8324
175 8 -6.5687 -4.0614 -8.3115
176 1 -6.1720 -3.2780 -8.6925
177 1 -7.2882 -4.2782 -8.9043
178 8 6.8991 1.9752 7.0575
179 1 6.8602 2.4964 7.8595
180 1 7.7806 2.1259 6.7162
181 8 0.5550 -4.2315 3.9289
182 1 -0.1259 -4.8943 3.8142
183 1 0.2330 -3.6776 4.6401
184 8 -1.6837 3.7020 1.2035
185 1 -1.6032 4.4480 0.6091
186 1 -1.0154 3.8546 1.8715
187 8 -9.6737 1.1479 0.7835
188 1 -9.1417 1.3484 1.5536
189 1 -10.2795 0.4690 1.0808
190 8 -7.2003 0.2407 3.5261
191 1 -7.8762 -0.3910 3.7715
192 1 -7.1383 0.1677 2.5738
193 8 -5.6570 -4.9879 -2.2500
194 1 -6.1442 -4.9972 -3.0738
195 1 -4.7527 -4.8098 -2.5084
196 8 -2.3320 -5.0258 6.6563
197 1 -2.4242 -5.0194 5.7036
198 1 -1.7756 -5.7832 6.8382
199 8 3.9862 3.7137 -3.6754
200 1 3.8743 3.0118 -4.3166
201 1 4.8820 3.6058 -3.3559
202 8 -3.3253 1.0003 -7.9719
203 1 -4.2024 0.8540 -7.6177
204 1 -3.0733 0.1553 -8.3444
205 8 8.0931 -2.5327 -7.0420
206 1 7.6418 -3.0085 -6.3448
207 1 8.6702 -3.1835 -7.4416
208 8 8.7645 0.9066 4.2465
209 1 8.0747 1.5203 4.4989
210 1 9.4907 1.1061 4.8372
211 8 1.3243 1.8229 -3.6585
212 1 2.1551 1.3497 -3.6122
213 1 0.6707 1.1438 -3.8255
214 8 0.4969 -1.5475 0.0587
215 1 0.2920 -0.6435 -0.1803
216 1 -0.3233 -1.8945 0.4095
217 8 -0.9265 2.6060 8.8715
218 1 -1.4695 3.2920 9.2597
219 1 -0.0506 2.7663 9.2226
220 8 -6.9898 0.3813 -0.7857
221 1 -7.8287 0.2255 -0.3519
222 1 -6.4241 0.7284 -0.0960
223 8 4.6731 -1.3199 -6.2159
224 1 3.8577 -1.7827 -6.4087
225 1 5.1078 -1.2364 -7.0646
226 8 4.8509 -5.6022 -6.1362
227 1 4.1674 -5.3098 -6.7392
228 1 5.4257 -6.1486 -6.6723
229 8 -3.4131 -3.4480 2.0253
230 1 -4.2501 -2.9870 2.0808
231 1 -3.2572 -3.5496 1.0864
232 8 -7.7843 -4.2995 5.8363
233 1 -7.4710 -4.6324 4.9953
234 1 -8.1139 -3.4227 5.6393
235 8 -2.7910 -0.1018 0.2426
236 1 -3.4188 -0.7063 -0.1532
237 1 -2.3706 -0.6121 0.9348
238 8 6.0862 -2.6071 -8.6416
239 1 5.2262 -2.1874 -8.6633
240 1 6.4823 -2.3856 -9.4843
241 8 -5.4562 -1.3063 -0.9044
242 1 -4.9634 -0.8709 -0.2088
243 1 -5.3873 -0.7144 -1.6535
244 8 7.2719 -2.3009 7.8310
245 1 6.4675 -2.3994 8.3404
246 1 7.8029 -1.6866 8.3379
247 8 4.0974 -4.9783 -2.2104
248 1 4.7896 -5.6388 -2.2398
249 1 3.2902 -5.4817 -2.1040
250 8 -6.6749 2.0204 -6.9356
251 1 -7.0397 1.5385 -7.6780
252 1 -7.0318 2.9041 -7.0248
253 8 4.8413 0.3316 8.1414
254 1 3.9254 0.0542 8.1212
255 1 4.8741 1.0005 8.8253
256 8 -7.1584 2.7368 2.9654
257 1 -7.7098 2.2866 2.3255
258 1 -6.4416 3.1039 2.4480
259 8 -6.0484 3.0786 5.7119
260 1 -5.3510 2.5386 5.3400
261 1 -6.4604 3.4934 4.9540
262 8 -3.9867 1.9909 8.6017
263 1 -4.6624 2.4416 9.1081
264 1 -3.3613 2.6781 8.3717
265 8 6.3140 4.0759 5.3865
266 1 5.3993 3.9093 5.6138
267 1 6.4558 3.5772 4.5819
268 8 6.9079 -5.3838 -7.2892
269 1 7.1883 -5.9548 -6.5740
270 1 7.2383 -5.8102 -8.0800
271 8 -0.5895 -4.6171 -7.0794
272 1 -0.7532 -4.1788 -7.9144
273 1 -0.1907 -5.4529 -7.3216
274 8 1.1234 3.7280 3.5218
275 1 1.9787 3.3312 3.6868
276 1 0.5698 2.9978 3.2448
277 8 -4.2190 1.8329 2.6064
278 1 -5.0700 2.2057 2.3760
279 1 -3.8397 2.4623 3.2197
280 8 8.0250 3.3579 2.2474
281 1 7.8513 3.3295 1.3065
282 1 8.3898 2.4965 2.4499
283 8 5.9007 -4.5976 2.4495
284 1 6.3060 -5.4106 2.7510
285 1 5.3696 -4.8591 1.6973
286 8 3.2113 3.6038 3.1353
287 1 2.6468 3.6865 3.9039
288 1 2.6102 3.6410 2.3913
289 8 -4.1103 -3.9969 10.1228
290 1 -4.9344 -4.0502 10.6069
291 1 -3.4326 -4.0858 10.7929
292 8 -2.4665 -1.7725 -3.9170
293 1 -2.2590 -1.9173 -4.8402
294 1 -2.8809 -0.9099 -3.8971
295 8 4.8217 0.0645 -9.8827
296 1 5.6380 -0.3973 -9.6912
297 1 5.0669 0.7266 -10.5291
298 8 -10.1535 -0.6494 -2.6658
299 1 -9.9128 -1.5758 -2.6545
300 1 -10.9965 -0.6264 -3.1187
301 8 2.3330 3.5209 10.6906
302 1 2.8483 4.3155 10.8295
303 1 2.9841 2.8388 10.5260
304 8 0.2468 -2.0485 6.9348
305 1 0.0593 -1.1242 6.7715
306 1 0.3481 -2.1084 7.8848
307 8 -8.1311 -0.9643 -6.9891
308 1 -7.6156 -0.1764 -7.1615
309 1 -8.7057 -1.0460 -7.7502
310 8 -1.0774 2.6824 -5.2198
311 1 -1.1655 3.4159 -5.8283
312 1 -1.5689 2.9537 -4.4445
313 8 1.1708 -3.8955 9.4423
314 1 1.8451 -4.2056 10.0468
315 1 0.9680 -3.0099 9.7434
316 8 -5.5571 -0.5713 9.8060
317 1 -5.6162 0.3601 9.5934
318 1 -6.3850 -0.7702 10.2434
319 8 -0.8230 0.9266 5.8918
320 1 -0.5887 0.0193 6.0875
321 1 -1.0939 1.2913 6.7343
322 8 2.4388 -3.7851 -10.9153
323 1 2.5007 -4.1091 -10.0167
324 1 1.8705 -3.0173 -10.8546
325 8 2.3510 4.0364 -2.1972
326 1 3.2241 4.1451 -2.5742
327 1 2.3102 4.6866 -1.4959
328 8 7.2922 3.2003 0.1494
329 1 6.5570 2.9560 0.7116
330 1 7.7842 2.3877 0.0318
331 8 -5.4815 -5.1014 3.1322
332 1 -6.0516 -4.3345 3.1878
333 1 -5.8671 -5.7312 3.7413
334 8 6.0062 -5.1228 7.7773
335 1 5.1408 -5.0420 7.3762
336 1 5.9674 -5.9440 8.2676
337 8 4.8809 -5.3476 -9.1721
338 1 4.6747 -5.3794 -8.2379
339 1 5.3681 -4.5311 -9.2823
340 8 10.9106 -3.2464 2.0856
341 1 11.6703 -2.9771 1.5693
342 1 10.4390 -2.4320 2.2606
343 8 -8.9836 4.1506 0.6301
344 1 -9.8631 4.5123 0.5208
345 1 -8.4292 4.9137 0.7932
346 8 8.7873 0.7918 -6.0231
347 1 9.7099 0.5922 -6.1818
348 1 8.3389 -0.0473 -6.1289
349 8 7.5937 -5.1515 -2.4181
350 1 7.7371 -5.1865 -1.4724
351 1 7.1114 -4.3365 -2.5574
352 8 6.8048 -0.0443 -3.7602
353 1 5.9868 0.0846 -4.2403
354 1 7.1390 0.8407 -3.6143
355 8 -9.8991 -5.2459 1.0343
356 1 -9.3516 -4.4918 0.8158
357 1 -9.5507 -5.9583 0.4983
358 8 4.9501 4.0717 -8.2167
359 1 5.7060 4.6110 -7.9842
360 1 5.1000 3.8302 -9.1307
361 8 9.0344 3.7505 -3.0929
362 1 8.9503 3.1474 -3.8315
363 1 8.1398 4.0436 -2.9198
364 8 4.5303 1.0747 -3.3493
365 1 3.7859 0.4729 -3.3406
366 1 5.2477 0.5741 -2.9607
367 8 -6.8857 3.3915 -2.9080
368 1 -6.0219 3.6829 -3.1999
369 1 -7.4059 4.1936 -2.8605
370 8 -1.8461 -2.4367 9.4654
371 1 -2.2718 -1.7365 9.9601
372 1 -1.0827 -2.0186 9.0670
373 8 -4.4401 0.8653 5.9293
374 1 -3.8674 0.3644 5.3485
375 1 -4.3619 0.4289 6.7777
376 8 8.0934 -5.3369 3.0670
377 1 8.1816 -4.8414 3.8811
378 1 8.1121 -6.2538 3.3413
379 8 -0.9547 -4.9863 -0.4573
380 1 -0.0068 -4.8769 -0.5330
381 1 -1.2991 -4.6794 -1.2961
382 8 -0.7480 -2.0879 2.5792
383 1 -1.0351 -2.5118 1.7704
384 1 -1.1432 -1.2167 2.5466
385 8 -1.0457 0.1780 -7.7286
386 1 -0.3217 -0.0752 -8.3012
387 1 -1.3841 0.9865 -8.1133
388 8 4.4055 2.7152 -0.3293
389 1 4.5607 3.6194 -0.0562
390 1 3.7794 2.3758 0.3102
391 8 0.8592 -2.0664 -2.9797
392 1 0.9573 -2.9822 -2.7189
393 1 0.1254 -2.0696 -3.5943
394 8 -6.0207 -0.3463 -8.0256
395 1 -6.3289 0.1297 -8.7967
396 1 -5.2338 0.1250 -7.7517
397 8 1.2419 3.9512 -6.3420
398 1 2.0298 3.6284 -6.7793
399 1 1.4109 3.8121 -5.4102
400 8 -10.4378 -1.8206 0.1727
401 1 -9.9294 -2.6297 0.2280
402 1 -10.5186 -1.5258 1.0798
403 8 -9.6180 4.0553 -1.9692
404 1 -10.3889 3.4886 -1.9383
405 1 -9.2314 3.8873 -2.8286
406 8 1.3568 2.3747 -9.7315
407 1 0.6768 2.8883 -9.2954
408 1 2.0877 2.9839 -9.8355
409 8 -6.3622 3.9512 9.7188
410 1 -6.9479 4.6176 9.3595
411 1 -5.8516 4.4139 10.3832
412 8 -4.4058 3.7596 -6.6011
413 1 -4.1789 3.0687 -7.2235
414 1 -3.5895 4.2423 -6.4709
415 8 -1.5479 -5.5179 -3.7867
416 1 -2.1468 -6.2175 -4.0476
417 1 -2.0071 -5.0592 -3.0832
418 8 2.0036 1.4241 8.8360
419 1 1.3299 1.7988 9.4035
420 1 1.7611 1.7100 7.9552
421 8 -1.3505 -0.7073 -9.8879
422 1 -1.9550 -0.2135 -9.3339
423 1 -0.6311 -0.0995 -10.0588
424 8 10.5887 -5.6929 -1.5199
425 1 9.7795 -5.9591 -1.0835
426 1 11.1740 -6.4434 -1.4181
427 8 3.5767 -3.0700 -4.6364
428 1 3.0525 -2.5761 -5.2670
429 1 4.4058 -2.5940 -4.5891
430 8 -4.9957 -1.7842 1.8800
431 1 -5.4550 -2.6186 1.9748
432 1 -5.6926 -1.1395 1.7582
433 8 7.0021 0.2649 -8.2316
434 1 7.3759 -0.4519 -8.7441
435 1 7.2324 0.0576 -7.3260
436 8 3.0085 -1.5162 10.4385
437 1 2.4574 -1.1743 9.7344
438 1 3.5661 -2.1668 10.0120
439 8 -1.0051 0.0625 -3.5681
440 1 -0.3375 -0.2884 -4.1575
441 1 -1.2945 -0.6933 -3.0569
442 8 6.8203 2.4002 -3.2976
443 1 7.3910 2.1259 -2.5798
444 1 6.7472 1.6256 -3.8551
445 8 -1.6398 2.9040 -10.2049
446 1 -0.7254 2.7991 -10.4675
447 1 -1.8878 3.7660 -10.5392
448 8 -8.9972 3.6654 -5.5257
449 1 -8.9506 2.8228 -5.9775
450 1 -9.5048 3.4853 -4.7344
ITEM: TIMESTEP
2
ITEM: NUMBER OF ATOMS
450
ITEM: BOX BOUNDS pp pp pp
-14.0000 14.0000
-8.5000 7.0000
-14.0000 14.0000
ITEM: ATOMS id type x y z
1 8 6.9302 0.4762 -1.1635
2 1 7.4217 1.2730 -1.3626
3 1 7.2505 0.2058 -0.3029
4 8 -3.8738 -5.3399 -0.6661
5 1 -4.1081 -4.4554 -0.9471
6 1 -2.9595 -5.2699 -0.3917
7 8 9.5728 1.6059 0.8987
8 1 8.9739 0.8918 1.1169
9 1 10.3466 1.4430 1.4380
10 8 3.3432 1.5180 -7.4521
11 1 3.7762 0.8402 -7.9711
12 1 3.4630 2.3211 -7.9589
13 8 9.9134 -3.1529 -4.0965
14 1 10.5851 -3.3548 -3.4451
15 1 9.3785 -3.9454 -4.1427
16 8 1.5599 -3.2785 -7.9405
17 1 1.3321 -4.1912 -7.7634
18 1 2.0935 -3.3143 -8.7344
19 8 6.5798 -2.5379 0.2782
20 1 6.4852 -1.6986 0.7286
21 1 6.4635 -3.1934 0.9659
22 8 7.3075 -3.8888 6.1246
23 1 6.6815 -3.9281 6.8477
24 1 7.9405 -3.2222 6.3916
25 8 -2.5725 0.0540 9.4139
26 1 -3.4099 0.0813 9.8767
27 1 -1.9869 -0.4184 10.0056
28 8 -3.9236 -2.4582 4.4512
29 1 -4.5577 -3.1751 4.4363
30 1 -3.2030 -2.7642 3.9003
31 8 3.9857 3.6816 8.9055
32 1 4.5256 2.9045 9.0504
33 1 4.5633 4.4165 9.1115
34 8 -5.0061 -4.4154 6.6052
35 1 -5.0171 -3.4934 6.3485
36 1 -5.7758 -4.7922 6.1788
37 8 1.1461 -4.5663 0.4847
38 1 1.8717 -5.1901 0.5057
39 1 1.4015 -3.8807 1.1020
40 8 7.0538 -1.2663 4.3454
41 1 6.3986 -1.9610 4.2791
42 1 7.5728 -1.4989 5.1152
43 8 -2.1686 -4.0818 -10.8601
44 1 -2.5088 -4.9386 -11.1177
45 1 -2.9474 -3.5340 -10.7627
46 8 -3.0061 -1.8048 -7.7051
47 1 -3.4191 -1.0609 -7.2666
48 1 -2.6034 -1.4284 -8.4876
49 8 -5.0181 -3.1902 -5.2802
50 1 -5.6259 -2.5043 -5.0039
51 1 -4.1786 -2.9349 -4.8976
52 8 0.5205 0.6547 2.7492
53 1 -0.0670 -0.0990 2.8040
54 1 0.9383 0.5711 1.8920
55 8 -1.6565 3.4806 4.9208
56 1 -1.0102 3.7153 5.5868
57 1 -2.1390 2.7476 5.3030
58 8 4.3284 -2.2301 -2.1718
59 1 3.5468 -2.7054 -1.8897
60 1 4.5535 -1.6747 -1.4254
61 8 -7.8724 1.3606 7.9010
62 1 -8.3834 1.9492 7.3454
63 1 -7.9935 1.7022 8.7870
64 8 -7.7976 -2.4841 -3.2182
65 1 -7.2112 -1.7759 -3.4842
66 1 -8.2293 -2.7548 -4.0285
67 8 -2.1582 -2.3275 -0.6656
68 1 -1.6685 -2.3990 0.1537
69 1 -2.9701 -1.8830 -0.4216
70 8 6.1480 1.4961 3.1382
71 1 6.3821 1.1529 2.2759
72 1 6.9767 1.5293 3.6161
73 8 0.5334 -1.6989 -5.9122
74 1 -0.1922 -2.3109 -6.0357
75 1 0.9092 -1.9405 -5.0656
76 8 -6.7743 3.1973 0.4118
77 1 -7.2173 2.6160 1.0299
78 1 -6.0649 2.6664 0.0498
79 8 10.5462 -0.2268 2.5843
80 1 10.8479 -0.8266 1.9021
81 1 9.6279 -0.0625 2.3700
82 8 8.6021 -4.7999 0.7301
83 1 8.9323 -4.9167 1.6209
84 1 9.2223 -5.2783 0.1799
85 8 10.1997 3.4480 3.8625
86 1 10.2294 2.6851 3.2851
87 1 10.6989 3.1834 4.6351
88 8 6.3232 -2.7713 -3.1238
89 1 5.9006 -2.7937 -3.9823
90 1 5.6326 -2.4894 -2.5240
91 8 1.2123 -5.3337 6.1656
92 1 1.9278 -5.1533 6.7754
93 1 1.4935 -4.9359 5.3417
94 8 4.6170 -1.5634 5.3729
95 1 4.3211 -2.4696 5.2865
96 1 3.8424 -1.0854 5.6692
97 8 3.5362 -3.8736 8.6891
98 1 3.5446 -4.7709 9.0223
99 1 2.6145 -3.6965 8.5011
100 8 -4.8309 1.7598 0.0595
101 1 -5.0027 1.8585 -0.8770
102 1 -5.2176 0.9141 0.2864
103 8 8.9548 -0.8161 -1.8179
104 1 8.4112 -1.1837 -1.1211
105 1 9.7272 -0.4768 -1.3656
106 8 -4.3830 3.4193 -3.3605
107 1 -5.0426 2.9072 -2.8927
108 1 -3.5486 3.0262 -3.1046
109 8 -1.5146 3.9905 -7.6403
110 1 -2.3384 4.4382 -7.8328
111 1 -1.7327 3.0593 -7.6813
112 8 2.6625 -2.8407 2.8968
113 1 3.2383 -2.4466 3.5522
114 1 2.1307 -2.1123 2.5760
115 8 -2.8514 0.4726 -2.9611
116 1 -2.6550 1.3797 -2.7269
117 1 -3.5199 0.2020 -2.3318
118 8 -4.1734 3.4285 6.1093
119 1 -4.2633 3.7270 5.2043
120 1 -3.2708 3.6440 6.3441
121 8 -7.1747 -2.3363 1.3219
122 1 -8.0869 -2.4152 1.0429
123 1 -6.9873 -1.3993 1.2661
124 8 -10.1722 -2.7946 2.8161
125 1 -9.3382 -2.3322 2.8994
126 1 -10.8134 -2.2061 3.2146
127 8 1.4470 -0.4093 -9.8018
128 1 1.1914 0.2105 -9.1187
129 1 1.1608 0.0015 -10.6176
130 8 0.3732 -1.1094 9.9760
131 1 1.1819 -1.5976 10.1306
132 1 0.0788 -1.4006 9.1130
133 8 0.2451 1.9871 -0.9294
134 1 -0.3355 1.2826 -0.6416
135 1 0.0746 2.0701 -1.8676
136 8 2.7441 -3.2356 5.4923
137 1 2.3540 -4.0831 5.2782
138 1 2.1527 -2.8570 6.1427
139 8 -7.7201 1.1262 -4.7815
140 1 -7.5611 0.1908 -4.9084
141 1 -8.5853 1.2761 -5.1627
142 8 7.4791 2.7833 -6.4755
143 1 7.0678 3.2763 -5.7656